TITLE     = "fluent19.2.0  build-id: 10236"
VARIABLES = "Temperature"
DATASETAUXDATA Common.DensityVar="55"
DATASETAUXDATA Common.PressureVar="4"
DATASETAUXDATA Common.TemperatureVar="19"
DATASETAUXDATA Common.TurbulentDynamicViscosityVar="59"
DATASETAUXDATA Common.UVar="7"
DATASETAUXDATA Common.VectorVarsAreVelocity="TRUE"
DATASETAUXDATA Common.ViscosityVar="58"
DATASETAUXDATA Common.VVar="10"
DATASETAUXDATA Common.WVar="13"
ZONE T="Rectangular zone"
 STRANDID=0, SOLUTIONTIME=0.002
 I=32, J=16, K=16, ZONETYPE=Ordered
 DATAPACKING=POINT
 DT=(SINGLE )
 7.704147949E+02
 7.898559570E+02
 9.982651367E+02
 1.297853271E+03
 1.058829468E+03
 8.355264282E+02
 7.652165527E+02
 7.561468506E+02
 7.555261230E+02
 7.562811890E+02
 7.577777710E+02
 7.585421143E+02
 7.597982788E+02
 7.581526489E+02
 7.661420898E+02
 7.587664795E+02
 7.342492676E+02
 7.036965332E+02
 6.941209717E+02
 7.210446167E+02
 9.403934937E+02
 1.153472534E+03
 1.253773071E+03
 1.237125122E+03
 1.177810669E+03
 1.167747681E+03
 1.194474854E+03
 1.227335327E+03
 1.250250000E+03
 1.263510010E+03
 1.272188599E+03
 1.278125732E+03
 8.013598022E+02
 1.165855835E+03
 1.412860229E+03
 1.596872925E+03
 1.456410034E+03
 1.331803345E+03
 1.027009399E+03
 8.293212891E+02
 7.562077637E+02
 7.454850464E+02
 7.435442505E+02
 7.438464966E+02
 7.455841064E+02
 7.420874634E+02
 7.418501587E+02
 7.369600220E+02
 7.208018799E+02
 7.003405762E+02
 7.075733643E+02
 9.194506836E+02
 1.206532959E+03
 1.253238037E+03
 1.207161987E+03
 1.161145508E+03
 1.165537964E+03
 1.225410645E+03
 1.279605469E+03
 1.302716553E+03
 1.309855591E+03
 1.311682251E+03
 1.311509033E+03
 1.310008423E+03
 1.075314331E+03
 1.710171753E+03
 1.733677734E+03
 1.735811279E+03
 1.672261597E+03
 1.586027466E+03
 1.545654419E+03
 1.276761475E+03
 8.299151611E+02
 7.582854004E+02
 7.525002441E+02
 7.703552856E+02
 8.072838135E+02
 7.798912354E+02
 7.421050415E+02
 7.317935791E+02
 7.289041748E+02
 7.123847656E+02
 7.918007812E+02
 1.170364258E+03
 1.320818481E+03
 1.200027832E+03
 1.115459106E+03
 1.184626953E+03
 1.269994385E+03
 1.311977051E+03
 1.324689209E+03
 1.324491821E+03
 1.322000244E+03
 1.319180542E+03
 1.316259766E+03
 1.313407593E+03
 1.612887451E+03
 1.793047363E+03
 1.770948364E+03
 1.759197266E+03
 1.741441528E+03
 1.577090454E+03
 1.611099854E+03
 1.713914307E+03
 9.767927856E+02
 7.911120605E+02
 8.444317017E+02
 1.014136902E+03
 1.122722412E+03
 1.049802368E+03
 8.036529541E+02
 7.418026733E+02
 7.383081055E+02
 7.248609009E+02
 9.850435181E+02
 1.375833984E+03
 1.304071899E+03
 1.139915894E+03
 1.111452026E+03
 1.282585449E+03
 1.334413574E+03
 1.336071167E+03
 1.331342773E+03
 1.326132568E+03
 1.321601318E+03
 1.317827759E+03
 1.314614746E+03
 1.312031006E+03
 1.789469116E+03
 1.914819824E+03
 1.757091675E+03
 1.725368530E+03
 1.737730835E+03
 1.654542847E+03
 1.603425171E+03
 1.885078003E+03
 1.139869629E+03
 9.776356201E+02
 1.218278687E+03
 1.395305908E+03
 1.473553101E+03
 1.434173218E+03
 9.113629150E+02
 7.600810547E+02
 7.418045654E+02
 7.560031128E+02
 1.166984985E+03
 1.412312134E+03
 1.278594238E+03
 1.103140503E+03
 1.100427490E+03
 1.301613281E+03
 1.342672485E+03
 1.339084717E+03
 1.332797485E+03
 1.327176514E+03
 1.322714111E+03
 1.319240601E+03
 1.316406860E+03
 1.314380493E+03
 1.875551514E+03
 1.939125732E+03
 1.797855347E+03
 1.723020264E+03
 1.763412354E+03
 1.742171509E+03
 1.745835693E+03
 1.875198486E+03
 1.340647705E+03
 1.376475830E+03
 1.453161377E+03
 1.571105103E+03
 1.628747559E+03
 1.577076172E+03
 1.021979553E+03
 7.831422119E+02
 7.466325684E+02
 7.792971191E+02
 1.196932007E+03
 1.412040649E+03
 1.268487549E+03
 1.103790771E+03
 1.069298584E+03
 1.301293579E+03
 1.350954834E+03
 1.343795532E+03
 1.336324829E+03
 1.330591309E+03
 1.326486694E+03
 1.323710938E+03
 1.321702881E+03
 1.320193726E+03
 2.015997070E+03
 1.963864746E+03
 1.953662842E+03
 1.727840820E+03
 1.813959595E+03
 1.791958374E+03
 1.852360718E+03
 1.913848877E+03
 1.341726440E+03
 1.546085815E+03
 1.478223389E+03
 1.665191772E+03
 1.688930176E+03
 1.604130981E+03
 1.199222168E+03
 8.354475708E+02
 7.710042114E+02
 9.779175415E+02
 1.330512695E+03
 1.425056763E+03
 1.280521851E+03
 1.117266602E+03
 1.036154663E+03
 1.269564697E+03
 1.353986206E+03
 1.348844482E+03
 1.341063110E+03
 1.335673340E+03
 1.332106934E+03
 1.329957397E+03
 1.328711304E+03
 1.326984131E+03
 1.942068115E+03
 1.988921997E+03
 2.023396729E+03
 1.751219604E+03
 1.879101318E+03
 1.812519287E+03
 1.764234253E+03
 1.828726440E+03
 1.478549072E+03
 1.724332397E+03
 1.522826294E+03
 1.632179688E+03
 1.648585938E+03
 1.569408569E+03
 1.460136353E+03
 9.593686523E+02
 8.240206909E+02
 1.238384033E+03
 1.453914307E+03
 1.444447754E+03
 1.307135498E+03
 1.124790771E+03
 1.005502197E+03
 1.209956543E+03
 1.352262451E+03
 1.355399658E+03
 1.347072388E+03
 1.341706543E+03
 1.338185303E+03
 1.335776123E+03
 1.334104492E+03
 1.331057983E+03
 1.802756348E+03
 1.848251099E+03
 2.006708130E+03
 1.758801758E+03
 1.905819702E+03
 1.835541626E+03
 1.731489014E+03
 1.688390381E+03
 1.860753784E+03
 1.933500122E+03
 1.814750244E+03
 1.649973511E+03
 1.621677002E+03
 1.688743530E+03
 1.873026001E+03
 1.220302734E+03
 9.021554565E+02
 1.095016846E+03
 1.419784912E+03
 1.470219849E+03
 1.355967651E+03
 1.153661377E+03
 1.008087585E+03
 1.149480591E+03
 1.333445679E+03
 1.358230957E+03
 1.351823853E+03
 1.345653198E+03
 1.340449219E+03
 1.336046631E+03
 1.332170044E+03
 1.326718506E+03
 1.723900635E+03
 1.746310303E+03
 1.900579224E+03
 1.728929321E+03
 1.863428589E+03
 1.829734985E+03
 1.821700195E+03
 1.807110962E+03
 1.939308838E+03
 1.617614624E+03
 1.879915527E+03
 1.972436768E+03
 1.896786987E+03
 1.993374146E+03
 2.131460205E+03
 1.547242188E+03
 1.038724854E+03
 8.860700073E+02
 1.196678101E+03
 1.461560791E+03
 1.414880249E+03
 1.222394043E+03
 1.065820068E+03
 1.136078125E+03
 1.297705078E+03
 1.344196411E+03
 1.346027222E+03
 1.340445801E+03
 1.332525391E+03
 1.324439941E+03
 1.317142456E+03
 1.308641357E+03
 1.688998047E+03
 1.790490601E+03
 1.802868774E+03
 1.725311157E+03
 1.809114502E+03
 1.833649170E+03
 1.800218384E+03
 1.957689819E+03
 1.475076782E+03
 1.145518677E+03
 1.209605835E+03
 1.605721191E+03
 1.744540649E+03
 1.813938232E+03
 1.926100708E+03
 1.534866089E+03
 1.051661743E+03
 8.188904419E+02
 9.143596802E+02
 1.367934204E+03
 1.455831177E+03
 1.295961182E+03
 1.147913208E+03
 1.162140503E+03
 1.260913818E+03
 1.307520630E+03
 1.317199341E+03
 1.314160522E+03
 1.305158813E+03
 1.295188843E+03
 1.286126587E+03
 1.276872803E+03
 1.737327515E+03
 1.782840942E+03
 1.848131104E+03
 1.797816895E+03
 1.810408813E+03
 1.814598511E+03
 1.680122070E+03
 1.907975830E+03
 1.298959839E+03
 8.979751587E+02
 8.209743042E+02
 8.439413452E+02
 9.502151489E+02
 1.049651611E+03
 1.161581055E+03
 1.048311523E+03
 8.747824097E+02
 7.557225342E+02
 7.687558594E+02
 1.215418945E+03
 1.468092041E+03
 1.358214722E+03
 1.221314209E+03
 1.194907227E+03
 1.232248779E+03
 1.258250977E+03
 1.265723633E+03
 1.265355835E+03
 1.260119141E+03
 1.254297729E+03
 1.250037354E+03
 1.246859741E+03
 1.531645630E+03
 1.771213745E+03
 1.666812256E+03
 1.738005737E+03
 1.748286133E+03
 1.638565918E+03
 1.593340332E+03
 1.742286499E+03
 1.060265137E+03
 8.019179077E+02
 7.565590820E+02
 7.455251465E+02
 7.425961914E+02
 7.470353394E+02
 7.516681519E+02
 7.482288818E+02
 7.545699463E+02
 7.176210938E+02
 7.951459961E+02
 1.225507202E+03
 1.457053223E+03
 1.380683105E+03
 1.262050049E+03
 1.214592163E+03
 1.209665039E+03
 1.213022461E+03
 1.217743896E+03
 1.225357300E+03
 1.231564453E+03
 1.236099854E+03
 1.241041260E+03
 1.246945435E+03
 1.171356812E+03
 1.549599365E+03
 1.478002686E+03
 1.628600464E+03
 1.594722778E+03
 1.526279175E+03
 1.548481567E+03
 1.253663086E+03
 8.096924438E+02
 7.510935059E+02
 7.421453857E+02
 7.387164307E+02
 7.359256592E+02
 7.350922852E+02
 7.354537354E+02
 7.359802246E+02
 7.265372925E+02
 7.091918945E+02
 8.663544312E+02
 1.264187622E+03
 1.399064575E+03
 1.341354248E+03
 1.254466675E+03
 1.205228027E+03
 1.188420654E+03
 1.191444458E+03
 1.207300049E+03
 1.227710938E+03
 1.244533813E+03
 1.255873413E+03
 1.264940308E+03
 1.273278198E+03
 9.273365479E+02
 1.489935669E+03
 1.476568237E+03
 1.530241089E+03
 1.409252075E+03
 1.266962402E+03
 1.036975098E+03
 8.278341675E+02
 7.637370605E+02
 7.570777588E+02
 7.564338379E+02
 7.560380859E+02
 7.565542603E+02
 7.582931519E+02
 7.655100098E+02
 7.774671631E+02
 7.618975220E+02
 7.525944214E+02
 9.645470581E+02
 1.211307129E+03
 1.266526245E+03
 1.228140259E+03
 1.186831909E+03
 1.164699585E+03
 1.170633423E+03
 1.196814941E+03
 1.227721069E+03
 1.253834106E+03
 1.271675659E+03
 1.282801392E+03
 1.290519775E+03
 1.296114624E+03
 7.797141724E+02
 1.242935059E+03
 1.394503296E+03
 1.400158691E+03
 1.140874268E+03
 8.559551392E+02
 7.695028076E+02
 7.591890259E+02
 7.582350464E+02
 7.592465820E+02
 7.619286499E+02
 7.645446777E+02
 7.688867798E+02
 7.739608154E+02
 7.839960327E+02
 8.196619873E+02
 8.368104858E+02
 8.166373901E+02
 9.259338379E+02
 1.087266479E+03
 1.153048096E+03
 1.162324951E+03
 1.161995239E+03
 1.169906738E+03
 1.199014038E+03
 1.237501709E+03
 1.267692505E+03
 1.286322632E+03
 1.296836914E+03
 1.303314453E+03
 1.307838867E+03
 1.310605469E+03
 7.935210571E+02
 8.589634399E+02
 1.012717834E+03
 1.442476929E+03
 1.291782593E+03
 9.500889893E+02
 8.024893799E+02
 7.706143799E+02
 7.639401245E+02
 7.611263428E+02
 7.596965942E+02
 7.589105835E+02
 7.586290283E+02
 7.572312622E+02
 7.615966187E+02
 7.659590454E+02
 7.503076172E+02
 7.234437256E+02
 7.066829224E+02
 7.438036499E+02
 1.021453369E+03
 1.266387817E+03
 1.373034424E+03
 1.346474976E+03
 1.267847412E+03
 1.225039917E+03
 1.216345215E+03
 1.232901001E+03
 1.253896240E+03
 1.266133667E+03
 1.272581909E+03
 1.276895752E+03
 1.385804077E+03
 1.819852539E+03
 1.838944336E+03
 1.785748413E+03
 1.736713135E+03
 1.699985352E+03
 1.830897461E+03
 1.112935547E+03
 8.066635742E+02
 7.525447998E+02
 7.469876709E+02
 7.503162842E+02
 7.542302246E+02
 7.505232544E+02
 7.557192993E+02
 7.587775269E+02
 7.553652344E+02
 7.316528320E+02
 9.409704590E+02
 1.411400513E+03
 1.437297607E+03
 1.392049194E+03
 1.378106689E+03
 1.371056885E+03
 1.363126099E+03
 1.357772095E+03
 1.350554321E+03
 1.342656250E+03
 1.335733521E+03
 1.329532593E+03
 1.323712891E+03
 1.317899780E+03
 1.753457764E+03
 1.807523926E+03
 1.750139771E+03
 1.751686646E+03
 1.759360229E+03
 1.719478149E+03
 1.677860107E+03
 1.619243774E+03
 1.232095703E+03
 8.224800415E+02
 8.445942993E+02
 9.555051270E+02
 9.653765259E+02
 8.707305908E+02
 7.606260376E+02
 7.470131836E+02
 7.431493530E+02
 7.209212646E+02
 9.866628418E+02
 1.389403320E+03
 1.411416016E+03
 1.379791260E+03
 1.370308228E+03
 1.363046997E+03
 1.354205811E+03
 1.346378296E+03
 1.338717163E+03
 1.331088379E+03
 1.323733276E+03
 1.316640259E+03
 1.310008301E+03
 1.304418823E+03
 1.724025391E+03
 1.704605103E+03
 1.669495483E+03
 1.759109741E+03
 1.766819702E+03
 1.784237305E+03
 1.608505127E+03
 1.797467041E+03
 1.539285522E+03
 1.129175903E+03
 1.270545898E+03
 1.440762817E+03
 1.439774170E+03
 1.344901489E+03
 9.387567749E+02
 7.758714600E+02
 7.435798340E+02
 7.457945557E+02
 1.181804810E+03
 1.405858521E+03
 1.400356323E+03
 1.375203003E+03
 1.358630371E+03
 1.347029541E+03
 1.337925537E+03
 1.330408691E+03
 1.323816040E+03
 1.317680542E+03
 1.311468628E+03
 1.304757324E+03
 1.296538818E+03
 1.289585449E+03
 1.797819092E+03
 1.673533447E+03
 1.645770630E+03
 1.830495972E+03
 1.825739136E+03
 1.776413696E+03
 1.596595703E+03
 1.951863770E+03
 1.638641846E+03
 1.623221680E+03
 1.480225464E+03
 1.523287598E+03
 1.466235596E+03
 1.493330444E+03
 1.117993652E+03
 8.257595825E+02
 7.521062012E+02
 8.100852051E+02
 1.271539307E+03
 1.396376831E+03
 1.387760132E+03
 1.370545166E+03
 1.355731689E+03
 1.343354004E+03
 1.334544434E+03
 1.327541748E+03
 1.321614990E+03
 1.316356934E+03
 1.311159668E+03
 1.304955566E+03
 1.286154907E+03
 1.219936035E+03
 1.932807983E+03
 1.775940674E+03
 1.667617920E+03
 1.790349487E+03
 1.846310181E+03
 1.774470703E+03
 1.594236206E+03
 1.885574951E+03
 1.667771729E+03
 1.464218872E+03
 1.524754517E+03
 1.533360596E+03
 1.497076904E+03
 1.514399780E+03
 1.037648193E+03
 8.089848633E+02
 7.625974121E+02
 1.026008301E+03
 1.367607300E+03
 1.389994995E+03
 1.385915039E+03
 1.370920654E+03
 1.355908203E+03
 1.343526001E+03
 1.336104614E+03
 1.330869019E+03
 1.326707397E+03
 1.323239380E+03
 1.319885620E+03
 1.314533447E+03
 1.243644775E+03
 9.803892822E+02
 2.094059570E+03
 2.025208008E+03
 1.887059692E+03
 1.741414062E+03
 1.851730957E+03
 1.826666504E+03
 1.741753052E+03
 1.953769653E+03
 1.568924927E+03
 1.424491577E+03
 1.565838013E+03
 1.554265869E+03
 1.479994507E+03
 1.572555176E+03
 1.138331909E+03
 8.659127808E+02
 9.933278809E+02
 1.292594971E+03
 1.391339478E+03
 1.390002563E+03
 1.389815430E+03
 1.376876709E+03
 1.364080078E+03
 1.352230957E+03
 1.345770752E+03
 1.341960449E+03
 1.339187256E+03
 1.336912476E+03
 1.334492676E+03
 1.328235352E+03
 1.161806519E+03
 7.228241577E+02
 2.004128540E+03
 2.121671143E+03
 1.951389893E+03
 1.722527344E+03
 1.861633301E+03
 1.879365845E+03
 1.958516235E+03
 2.077718750E+03
 1.753012939E+03
 1.447817627E+03
 1.584899780E+03
 1.637839600E+03
 1.424748047E+03
 1.587761719E+03
 1.487923950E+03
 1.020053589E+03
 1.292348267E+03
 1.430388428E+03
 1.399482666E+03
 1.394222534E+03
 1.397016235E+03
 1.388929688E+03
 1.378396362E+03
 1.368827271E+03
 1.362745728E+03
 1.359803101E+03
 1.357397705E+03
 1.354419189E+03
 1.350465576E+03
 1.340653687E+03
 1.146396484E+03
 6.808333740E+02
 1.926765625E+03
 1.972825195E+03
 1.951465454E+03
 1.667220337E+03
 1.846127441E+03
 1.874849121E+03
 1.805411987E+03
 1.910914795E+03
 1.893958862E+03
 1.565441406E+03
 1.487884155E+03
 1.751502075E+03
 1.523543335E+03
 1.548672241E+03
 1.945372070E+03
 1.351526978E+03
 1.187229492E+03
 1.436386108E+03
 1.423760864E+03
 1.409274170E+03
 1.409513428E+03
 1.406267578E+03
 1.397775757E+03
 1.391324707E+03
 1.385409790E+03
 1.382209595E+03
 1.378795288E+03
 1.371741211E+03
 1.362057373E+03
 1.346107422E+03
 1.105442383E+03
 7.168646240E+02
 2.045498291E+03
 1.824514648E+03
 1.900767700E+03
 1.672236206E+03
 1.859522705E+03
 1.853516113E+03
 1.713355103E+03
 1.739629395E+03
 1.842750610E+03
 1.939121338E+03
 1.514494263E+03
 1.684442383E+03
 1.668349365E+03
 1.711461304E+03
 2.190951172E+03
 1.757313599E+03
 1.067460205E+03
 1.285710449E+03
 1.465313965E+03
 1.445965088E+03
 1.437470703E+03
 1.431325195E+03
 1.420954346E+03
 1.413830688E+03
 1.407704102E+03
 1.400733765E+03
 1.394517578E+03
 1.381575562E+03
 1.363962646E+03
 1.344170410E+03
 1.122806152E+03
 9.015470581E+02
 1.968948975E+03
 1.785365112E+03
 1.794476562E+03
 1.718823242E+03
 1.930472656E+03
 1.884654053E+03
 1.725956665E+03
 1.838420654E+03
 2.072941895E+03
 2.032006104E+03
 1.927441406E+03
 1.863768188E+03
 1.855893677E+03
 2.100800049E+03
 2.221545654E+03
 1.854954224E+03
 1.106583984E+03
 1.029895752E+03
 1.430972656E+03
 1.496410889E+03
 1.482064331E+03
 1.466493164E+03
 1.445491089E+03
 1.429286743E+03
 1.416279053E+03
 1.401908569E+03
 1.393263794E+03
 1.380366089E+03
 1.360658203E+03
 1.342400269E+03
 1.263465942E+03
 1.195191650E+03
 1.838575684E+03
 1.763478271E+03
 2.059920410E+03
 1.826271362E+03
 1.956926025E+03
 1.897162720E+03
 1.752010254E+03
 1.762682373E+03
 1.932341797E+03
 1.590424438E+03
 1.590248291E+03
 1.926824829E+03
 1.980487793E+03
 1.913543091E+03
 1.592742798E+03
 1.231392212E+03
 9.707160034E+02
 8.021215820E+02
 1.223308228E+03
 1.509659790E+03
 1.525988525E+03
 1.497027832E+03
 1.456291138E+03
 1.422592163E+03
 1.398848389E+03
 1.381548462E+03
 1.379619751E+03
 1.374798828E+03
 1.358789307E+03
 1.344930908E+03
 1.327458130E+03
 1.318023438E+03
 1.779625122E+03
 1.649921265E+03
 2.083475342E+03
 1.871985229E+03
 1.908183960E+03
 1.893961060E+03
 1.739791992E+03
 1.882412964E+03
 1.424823364E+03
 9.678168945E+02
 8.935719604E+02
 1.103463623E+03
 1.120231934E+03
 9.568740845E+02
 7.977464600E+02
 7.502647705E+02
 7.409143677E+02
 7.206964722E+02
 1.027726685E+03
 1.438739624E+03
 1.533830078E+03
 1.511899658E+03
 1.457870728E+03
 1.411587036E+03
 1.385670532E+03
 1.371765625E+03
 1.374736206E+03
 1.378339478E+03
 1.366066284E+03
 1.352895630E+03
 1.343011597E+03
 1.334579956E+03
 1.617438965E+03
 1.620316284E+03
 1.956245605E+03
 1.862341431E+03
 1.822166748E+03
 1.782658203E+03
 1.795925049E+03
 1.562064697E+03
 9.241619873E+02
 7.801890259E+02
 7.531764526E+02
 7.558490601E+02
 7.681328125E+02
 7.693264160E+02
 7.628211670E+02
 7.390106812E+02
 7.129726562E+02
 7.111742554E+02
 8.841679688E+02
 1.287240479E+03
 1.506866821E+03
 1.520081909E+03
 1.471202393E+03
 1.431295776E+03
 1.411268921E+03
 1.398535034E+03
 1.395612427E+03
 1.390198486E+03
 1.374896362E+03
 1.360964111E+03
 1.350490967E+03
 1.341768921E+03
 1.232489258E+03
 1.509279053E+03
 1.759102295E+03
 1.816831299E+03
 1.730587402E+03
 1.673301758E+03
 1.901395020E+03
 1.100833130E+03
 7.969406128E+02
 7.638868408E+02
 7.597090454E+02
 7.609829102E+02
 7.755941772E+02
 7.907224121E+02
 8.026832886E+02
 7.651052856E+02
 7.001049194E+02
 7.042595215E+02
 9.516493530E+02
 1.336953979E+03
 1.509494263E+03
 1.519005981E+03
 1.482598267E+03
 1.454001587E+03
 1.435693726E+03
 1.422363281E+03
 1.406547852E+03
 1.387796875E+03
 1.371042114E+03
 1.358593872E+03
 1.349141235E+03
 1.341188843E+03
 8.256422119E+02
 1.438631714E+03
 1.588540649E+03
 1.595890625E+03
 1.541639648E+03
 1.394812256E+03
 1.143336914E+03
 8.867906494E+02
 7.656847534E+02
 7.424425049E+02
 7.399407349E+02
 7.427129517E+02
 7.442443237E+02
 7.411332397E+02
 7.384893188E+02
 7.516870117E+02
 7.501865234E+02
 7.409545288E+02
 9.465802002E+02
 1.325986328E+03
 1.411619507E+03
 1.358725586E+03
 1.293425781E+03
 1.280267944E+03
 1.311072510E+03
 1.343352173E+03
 1.357974731E+03
 1.358382935E+03
 1.353347900E+03
 1.347340332E+03
 1.341847534E+03
 1.336695312E+03
 1.039605591E+03
 1.334592041E+03
 1.291123657E+03
 1.665504272E+03
 1.705625977E+03
 1.525786499E+03
 1.008185547E+03
 8.249019775E+02
 7.839819946E+02
 7.684628296E+02
 7.612878418E+02
 7.605574951E+02
 7.579729614E+02
 7.568825073E+02
 7.594324341E+02
 7.627888794E+02
 7.615125732E+02
 7.537005005E+02
 7.254697266E+02
 8.846833496E+02
 1.243679565E+03
 1.442996826E+03
 1.473775513E+03
 1.400320190E+03
 1.306240356E+03
 1.236488403E+03
 1.201982300E+03
 1.199359009E+03
 1.214304932E+03
 1.231950195E+03
 1.247142212E+03
 1.259697632E+03
 1.922157959E+03
 1.796220215E+03
 1.736077759E+03
 1.699595703E+03
 1.585356201E+03
 1.561073364E+03
 1.817769043E+03
 1.611002197E+03
 1.264135986E+03
 1.031236328E+03
 9.206701660E+02
 8.681764526E+02
 8.356986694E+02
 7.753847656E+02
 7.544829712E+02
 7.474431152E+02
 7.514270630E+02
 7.437463379E+02
 8.669986572E+02
 1.364482300E+03
 1.501412109E+03
 1.467565430E+03
 1.439379761E+03
 1.420512207E+03
 1.401759155E+03
 1.386892700E+03
 1.373760864E+03
 1.361762695E+03
 1.351364624E+03
 1.341913818E+03
 1.333487549E+03
 1.325546997E+03
 1.938028076E+03
 1.701124023E+03
 1.724298096E+03
 1.811107178E+03
 1.771541504E+03
 1.699011475E+03
 1.687199951E+03
 1.859893677E+03
 1.550745483E+03
 1.479180298E+03
 1.793025391E+03
 1.661755615E+03
 1.711295532E+03
 1.670572754E+03
 9.951416626E+02
 7.691059570E+02
 7.330858154E+02
 8.637887573E+02
 1.347842773E+03
 1.413840942E+03
 1.398747437E+03
 1.386149292E+03
 1.378234009E+03
 1.371336304E+03
 1.365307007E+03
 1.354020020E+03
 1.340686646E+03
 1.328489014E+03
 1.316027954E+03
 1.302508301E+03
 1.281684692E+03
 1.269800781E+03
 1.734624023E+03
 1.650147095E+03
 1.729328125E+03
 1.844276367E+03
 1.800524048E+03
 1.795372559E+03
 1.669878540E+03
 1.770004883E+03
 2.031863281E+03
 1.971281860E+03
 1.619895996E+03
 1.608789307E+03
 1.549720825E+03
 1.595097412E+03
 1.381260864E+03
 8.712751465E+02
 7.401751709E+02
 8.316485596E+02
 1.287587280E+03
 1.373217896E+03
 1.359156982E+03
 1.349031738E+03
 1.339923340E+03
 1.332138428E+03
 1.325260010E+03
 1.317779785E+03
 1.309476562E+03
 1.300011719E+03
 1.287462891E+03
 1.247696899E+03
 9.700316772E+02
 8.696865234E+02
 1.721724976E+03
 1.619349121E+03
 1.645713013E+03
 1.765040649E+03
 1.808307739E+03
 1.748170166E+03
 1.753500122E+03
 2.134664062E+03
 1.796799683E+03
 1.468884521E+03
 1.423704468E+03
 1.605099731E+03
 1.484989136E+03
 1.579687744E+03
 1.321803467E+03
 8.964513550E+02
 7.577217407E+02
 1.032746948E+03
 1.346935303E+03
 1.342224487E+03
 1.332053101E+03
 1.326146484E+03
 1.321304077E+03
 1.316359253E+03
 1.311326904E+03
 1.306195312E+03
 1.300310181E+03
 1.292443726E+03
 1.278984863E+03
 1.172925171E+03
 5.923953857E+02
 5.784637451E+02
 1.454900879E+03
 1.832401855E+03
 1.831023560E+03
 1.751520752E+03
 1.796479492E+03
 1.812790405E+03
 1.937951172E+03
 1.725407104E+03
 1.373710449E+03
 1.353529053E+03
 1.374785767E+03
 1.477796143E+03
 1.406251099E+03
 1.248375244E+03
 9.997239380E+02
 8.682991943E+02
 9.906190796E+02
 1.268265625E+03
 1.336418091E+03
 1.327514893E+03
 1.323840454E+03
 1.321115234E+03
 1.318716431E+03
 1.316334595E+03
 1.313923462E+03
 1.311139282E+03
 1.307357788E+03
 1.301184326E+03
 1.288095947E+03
 1.149980591E+03
 5.813302002E+02
 7.109586792E+02
 1.043017822E+03
 1.928779785E+03
 1.880670654E+03
 1.839917725E+03
 1.946087402E+03
 1.841462158E+03
 1.599237305E+03
 1.425687134E+03
 1.340231445E+03
 1.365949585E+03
 1.366958130E+03
 1.302120117E+03
 1.301272339E+03
 1.139044922E+03
 1.061163086E+03
 1.188419067E+03
 1.342284180E+03
 1.343263794E+03
 1.330037354E+03
 1.327663208E+03
 1.328103882E+03
 1.328589111E+03
 1.328749878E+03
 1.328717529E+03
 1.328407715E+03
 1.327186768E+03
 1.324089355E+03
 1.317296021E+03
 1.302061035E+03
 1.154998901E+03
 6.232851562E+02
 7.332106323E+02
 1.100953857E+03
 1.994026245E+03
 1.877579712E+03
 1.751640869E+03
 1.827027344E+03
 1.829040161E+03
 1.610571655E+03
 1.439086426E+03
 1.371656982E+03
 1.400505249E+03
 1.411728516E+03
 1.357003784E+03
 1.392397949E+03
 1.263443604E+03
 1.275452271E+03
 1.415397217E+03
 1.368370239E+03
 1.343944214E+03
 1.338279419E+03
 1.339448853E+03
 1.342792603E+03
 1.346025146E+03
 1.348468872E+03
 1.350192627E+03
 1.350932495E+03
 1.349106201E+03
 1.343272583E+03
 1.332486938E+03
 1.312958008E+03
 1.144990967E+03
 6.154562988E+02
 7.365467529E+02
 7.923059082E+02
 1.885906982E+03
 2.132858887E+03
 1.816960449E+03
 1.749238281E+03
 1.697228882E+03
 1.737250122E+03
 1.725570923E+03
 1.482275024E+03
 1.441348633E+03
 1.324425781E+03
 1.513533569E+03
 1.720918091E+03
 1.575837158E+03
 1.242962280E+03
 1.364621216E+03
 1.411009888E+03
 1.370690430E+03
 1.359378540E+03
 1.359988281E+03
 1.364676514E+03
 1.369920288E+03
 1.374008301E+03
 1.376366699E+03
 1.377086670E+03
 1.372852905E+03
 1.360321533E+03
 1.342749268E+03
 1.314631348E+03
 9.742558594E+02
 5.577766113E+02
 7.763131714E+02
 6.000671387E+02
 1.606249878E+03
 1.991028320E+03
 1.901170898E+03
 1.608820068E+03
 1.594372681E+03
 1.598850342E+03
 1.735052612E+03
 1.824760986E+03
 1.491060425E+03
 1.231268677E+03
 1.852107788E+03
 1.807880737E+03
 1.991809814E+03
 1.667137695E+03
 1.150834839E+03
 1.372870239E+03
 1.424836182E+03
 1.393880981E+03
 1.387772705E+03
 1.392064453E+03
 1.398011353E+03
 1.402255493E+03
 1.403513550E+03
 1.401678345E+03
 1.394442139E+03
 1.373241455E+03
 1.347305420E+03
 1.282447754E+03
 7.017025757E+02
 5.638613281E+02
 7.503107910E+02
 1.716801270E+03
 1.815985107E+03
 1.930922241E+03
 1.671955933E+03
 1.659539307E+03
 1.638619019E+03
 1.655779663E+03
 1.819010132E+03
 1.894222656E+03
 1.860489136E+03
 1.301742432E+03
 1.720212646E+03
 1.770489136E+03
 1.701801147E+03
 2.237332275E+03
 1.600349731E+03
 1.045608887E+03
 1.376802368E+03
 1.437910522E+03
 1.421844727E+03
 1.423742920E+03
 1.430223267E+03
 1.432768921E+03
 1.430080078E+03
 1.420731567E+03
 1.407980957E+03
 1.379513062E+03
 1.348170288E+03
 1.247299927E+03
 6.261594849E+02
 5.451408691E+02
 6.369612427E+02
 1.836290649E+03
 1.825199219E+03
 2.037880615E+03
 1.768636353E+03
 1.823471436E+03
 1.791052490E+03
 1.714829468E+03
 1.943278198E+03
 2.151063232E+03
 1.910672485E+03
 1.814288208E+03
 1.467024658E+03
 1.609011353E+03
 1.846116333E+03
 1.946272705E+03
 1.447848877E+03
 9.049512329E+02
 1.118990234E+03
 1.384158691E+03
 1.447132324E+03
 1.450338257E+03
 1.454494507E+03
 1.453152588E+03
 1.444628662E+03
 1.429343994E+03
 1.412850342E+03
 1.382348999E+03
 1.351054199E+03
 1.309496948E+03
 9.293779907E+02
 5.914002075E+02
 7.734063110E+02
 1.920015259E+03
 1.966410400E+03
 2.061940430E+03
 1.835475220E+03
 1.922310669E+03
 1.885063721E+03
 1.809347534E+03
 2.064954590E+03
 1.940611084E+03
 1.848445190E+03
 1.960012207E+03
 1.933443970E+03
 1.767713745E+03
 1.767068726E+03
 1.086604614E+03
 7.837310181E+02
 7.254608765E+02
 7.609466553E+02
 1.058902466E+03
 1.412396484E+03
 1.474725586E+03
 1.470533447E+03
 1.461073608E+03
 1.448552246E+03
 1.430188965E+03
 1.413222778E+03
 1.386378662E+03
 1.357496948E+03
 1.334313599E+03
 1.255884766E+03
 1.126214722E+03
 1.218625000E+03
 1.733114990E+03
 1.915416748E+03
 2.080368896E+03
 1.897404419E+03
 1.919585815E+03
 1.862737061E+03
 1.798997314E+03
 1.980432861E+03
 1.176495483E+03
 9.980673828E+02
 1.722608765E+03
 2.061037109E+03
 1.931312988E+03
 1.234895874E+03
 8.223891602E+02
 7.348003540E+02
 7.009263916E+02
 7.554046631E+02
 1.177001587E+03
 1.415983765E+03
 1.467450439E+03
 1.458001465E+03
 1.443296631E+03
 1.429259521E+03
 1.414174927E+03
 1.400014404E+03
 1.377951538E+03
 1.354408325E+03
 1.336997314E+03
 1.322417847E+03
 1.309247681E+03
 1.304865356E+03
 1.365380493E+03
 1.591818726E+03
 1.869560425E+03
 1.851442017E+03
 1.866585327E+03
 1.911665161E+03
 1.832812500E+03
 1.742300537E+03
 1.109493896E+03
 8.151783447E+02
 7.920166016E+02
 9.911962891E+02
 1.098380615E+03
 9.909755249E+02
 8.574884033E+02
 7.600364990E+02
 7.061905518E+02
 7.158624878E+02
 1.117305054E+03
 1.485520386E+03
 1.504632935E+03
 1.477164429E+03
 1.453744629E+03
 1.434658813E+03
 1.418721802E+03
 1.405594116E+03
 1.385019409E+03
 1.365017090E+03
 1.351240112E+03
 1.341492920E+03
 1.333717773E+03
 1.327456787E+03
 1.186982788E+03
 1.485938354E+03
 1.552378540E+03
 1.751857422E+03
 1.806164917E+03
 1.797374390E+03
 1.700166016E+03
 1.439501587E+03
 1.018862549E+03
 7.798775024E+02
 7.406275635E+02
 7.466478271E+02
 7.749319458E+02
 8.141460571E+02
 7.955784302E+02
 7.471427002E+02
 7.190065308E+02
 7.056978760E+02
 9.770303955E+02
 1.436876831E+03
 1.511851318E+03
 1.409402466E+03
 1.291891479E+03
 1.292623779E+03
 1.354227295E+03
 1.376504395E+03
 1.372489990E+03
 1.361514648E+03
 1.351106079E+03
 1.342707031E+03
 1.336095093E+03
 1.330852661E+03
 1.688651611E+03
 1.894838257E+03
 1.798446533E+03
 1.753489868E+03
 1.790491089E+03
 1.854426147E+03
 1.433849243E+03
 9.103826294E+02
 8.187310791E+02
 8.032399902E+02
 8.201184692E+02
 1.043474854E+03
 1.142920410E+03
 1.098346069E+03
 9.930385132E+02
 8.223061523E+02
 7.757144165E+02
 7.693142700E+02
 7.473980713E+02
 1.074791992E+03
 1.428735596E+03
 1.529572998E+03
 1.505263184E+03
 1.410029907E+03
 1.312268433E+03
 1.223427856E+03
 1.159439453E+03
 1.135180420E+03
 1.138046631E+03
 1.153096436E+03
 1.171049805E+03
 1.189709473E+03
 1.937448242E+03
 1.788873291E+03
 1.677525879E+03
 1.718253174E+03
 1.685686157E+03
 1.656946533E+03
 1.836769531E+03
 1.913864746E+03
 1.663816162E+03
 1.445893188E+03
 1.443990845E+03
 1.497003784E+03
 1.491245850E+03
 1.185389648E+03
 9.236399536E+02
 7.861066895E+02
 7.654923096E+02
 7.377402954E+02
 8.450615845E+02
 1.322550293E+03
 1.542896118E+03
 1.531532349E+03
 1.491901489E+03
 1.454996338E+03
 1.413380249E+03
 1.370963623E+03
 1.343522095E+03
 1.336631348E+03
 1.333799316E+03
 1.326669189E+03
 1.323952393E+03
 1.321720703E+03
 2.026616455E+03
 1.687709839E+03
 1.656906860E+03
 1.822067261E+03
 1.766703369E+03
 1.574064209E+03
 1.574513916E+03
 1.662853149E+03
 1.748880371E+03
 1.982608887E+03
 1.975261841E+03
 1.986593140E+03
 1.993767456E+03
 2.115233887E+03
 1.588207153E+03
 8.461168213E+02
 7.489627686E+02
 9.373461914E+02
 1.374608765E+03
 1.485231812E+03
 1.455665161E+03
 1.432449707E+03
 1.422527344E+03
 1.412660889E+03
 1.404349609E+03
 1.387668579E+03
 1.362040771E+03
 1.341557739E+03
 1.324733521E+03
 1.295403320E+03
 1.113059692E+03
 9.899562378E+02
 1.891735229E+03
 1.663832764E+03