TITLE     = "fluent19.2.0  build-id: 10236"
VARIABLES = "Temperature"
DATASETAUXDATA Common.DensityVar="55"
DATASETAUXDATA Common.PressureVar="4"
DATASETAUXDATA Common.TemperatureVar="19"
DATASETAUXDATA Common.TurbulentDynamicViscosityVar="59"
DATASETAUXDATA Common.UVar="7"
DATASETAUXDATA Common.VectorVarsAreVelocity="TRUE"
DATASETAUXDATA Common.ViscosityVar="58"
DATASETAUXDATA Common.VVar="10"
DATASETAUXDATA Common.WVar="13"
ZONE T="Rectangular zone"
 STRANDID=0, SOLUTIONTIME=0.003
 I=32, J=16, K=16, ZONETYPE=Ordered
 DATAPACKING=POINT
 DT=(SINGLE )
 8.229187622E+02
 1.806030396E+03
 1.755843506E+03
 1.736989014E+03
 1.750200684E+03
 1.479789673E+03
 1.123610962E+03
 9.484923706E+02
 8.051582642E+02
 7.666741333E+02
 7.596122437E+02
 7.587893677E+02
 7.578633423E+02
 7.581278076E+02
 7.582710571E+02
 7.575568848E+02
 7.565508423E+02
 7.509312744E+02
 7.492153931E+02
 7.289373169E+02
 7.068783569E+02
 8.220230103E+02
 1.192295410E+03
 1.309295654E+03
 1.181973877E+03
 1.087635986E+03
 1.090751221E+03
 1.096232910E+03
 1.089027832E+03
 1.128034424E+03
 1.209016602E+03
 1.264109741E+03
 1.191273926E+03
 1.834270020E+03
 1.760083008E+03
 1.755392456E+03
 1.781995239E+03
 1.668315796E+03
 1.611917358E+03
 1.600142700E+03
 1.419844849E+03
 1.283410645E+03
 1.174083740E+03
 9.634744263E+02
 8.805064697E+02
 7.872387695E+02
 7.522168579E+02
 7.447269897E+02
 7.428120728E+02
 7.359346313E+02
 7.327348022E+02
 7.269004517E+02
 7.060111084E+02
 7.637698364E+02
 1.101556030E+03
 1.266612305E+03
 1.210847412E+03
 1.103807373E+03
 1.033600342E+03
 1.047028564E+03
 1.168122314E+03
 1.253557251E+03
 1.294398438E+03
 1.312250610E+03
 1.630151611E+03
 1.923725708E+03
 1.878427734E+03
 1.805486450E+03
 1.795657837E+03
 1.854949829E+03
 1.901254272E+03
 1.956263672E+03
 1.915760498E+03
 1.961391235E+03
 1.871702393E+03
 1.658702271E+03
 1.624416626E+03
 1.070376831E+03
 8.142612305E+02
 7.670017700E+02
 7.818980103E+02
 7.787188721E+02
 7.523398438E+02
 7.396650391E+02
 7.233113403E+02
 8.334161987E+02
 1.184206787E+03
 1.283913330E+03
 1.260019897E+03
 1.069552368E+03
 1.023655151E+03
 1.158002686E+03
 1.287324097E+03
 1.321827515E+03
 1.321008423E+03
 1.317793335E+03
 1.941646118E+03
 2.164613770E+03
 2.122337891E+03
 1.850056152E+03
 1.840915161E+03
 2.009555176E+03
 2.075326172E+03
 2.064260498E+03
 1.936540283E+03
 1.972240845E+03
 1.892858765E+03
 1.793256104E+03
 2.025733765E+03
 1.426316895E+03
 9.875482788E+02
 8.844467163E+02
 9.402869263E+02
 8.566220093E+02
 7.871374512E+02
 7.636973877E+02
 7.375186157E+02
 9.620610962E+02
 1.286571411E+03
 1.286289307E+03
 1.260785767E+03
 1.057001343E+03
 1.093464722E+03
 1.265634399E+03
 1.320194458E+03
 1.326503662E+03
 1.322856934E+03
 1.317696167E+03
 2.133282959E+03
 2.216147949E+03
 2.038794067E+03
 1.796338867E+03
 1.816279663E+03
 1.894047729E+03
 1.942428589E+03
 2.046090332E+03
 1.937363159E+03
 1.891492920E+03
 1.971468994E+03
 1.751987061E+03
 1.823049805E+03
 1.551850098E+03
 1.338221802E+03
 1.269311523E+03
 1.205655029E+03
 8.876699219E+02
 7.971243286E+02
 7.666629639E+02
 7.767202759E+02
 1.035120117E+03
 1.277780762E+03
 1.286356323E+03
 1.279255371E+03
 1.056570435E+03
 1.097727295E+03
 1.284057861E+03
 1.326770142E+03
 1.328205566E+03
 1.324956909E+03
 1.317153442E+03
 2.075391602E+03
 1.997185547E+03
 1.922055420E+03
 1.913883789E+03
 1.893379272E+03
 1.885535645E+03
 1.844367310E+03
 1.903416016E+03
 1.978208252E+03
 1.952517212E+03
 1.738353271E+03
 1.606263306E+03
 1.597764771E+03
 1.617044434E+03
 1.588608887E+03
 1.451801025E+03
 1.132159912E+03
 8.459957275E+02
 8.120984497E+02
 8.578782959E+02
 9.686054077E+02
 1.265010376E+03
 1.325359253E+03
 1.310240845E+03
 1.312550781E+03
 1.077792480E+03
 1.064684326E+03
 1.274784546E+03
 1.328994507E+03
 1.332356934E+03
 1.331212280E+03
 1.313105835E+03
 1.904485229E+03
 1.705465576E+03
 1.578942383E+03
 1.853607422E+03
 2.085378906E+03
 2.042057251E+03
 1.872000854E+03
 1.853386475E+03
 1.866061401E+03
 1.910426636E+03
 1.722306396E+03
 1.829622314E+03
 1.852792236E+03
 1.865937866E+03
 1.834082642E+03
 1.437532104E+03
 1.111341187E+03
 8.932886353E+02
 8.931662598E+02
 1.146802002E+03
 1.287844727E+03
 1.396811401E+03
 1.381447021E+03
 1.324671631E+03
 1.337572876E+03
 1.115838379E+03
 9.987698364E+02
 1.216088379E+03
 1.324411499E+03
 1.336348999E+03
 1.337538086E+03
 1.309707275E+03
 1.514887451E+03
 1.596100830E+03
 1.458922852E+03
 1.779477051E+03
 2.029671387E+03
 2.004367065E+03
 1.935057129E+03
 1.982259155E+03
 2.015081177E+03
 2.019822144E+03
 1.984208130E+03
 2.102300049E+03
 1.935147583E+03
 1.831769043E+03
 1.856525635E+03
 1.596102295E+03
 1.466352173E+03
 1.274287842E+03
 1.214017456E+03
 1.276465210E+03
 1.387170410E+03
 1.432235718E+03
 1.439357056E+03
 1.333909546E+03
 1.330220337E+03
 1.158569336E+03
 9.625532227E+02
 1.121200073E+03
 1.308941528E+03
 1.338577026E+03
 1.343184082E+03
 1.322696533E+03
 1.331992432E+03
 1.655266724E+03
 1.691019775E+03
 1.983128174E+03
 2.030160278E+03
 2.000378052E+03
 2.032196777E+03
 2.075498047E+03
 2.121666748E+03
 2.057555664E+03
 2.096691162E+03
 2.133361816E+03
 2.022683228E+03
 1.987778809E+03
 1.965579956E+03
 1.837505249E+03
 1.696468262E+03
 1.690890503E+03
 1.737551758E+03
 1.525280762E+03
 1.320941772E+03
 1.403287109E+03
 1.459054688E+03
 1.398292236E+03
 1.313607178E+03
 1.208222046E+03
 9.835759888E+02
 1.027331543E+03
 1.263434082E+03
 1.332117188E+03
 1.344455688E+03
 1.285305298E+03
 1.396742188E+03
 1.506029419E+03
 2.011336792E+03
 1.887002319E+03
 1.894008911E+03
 1.900437134E+03
 1.896857300E+03
 1.891992310E+03
 1.902288574E+03
 1.853993408E+03
 1.984535156E+03
 2.148212402E+03
 2.152716553E+03
 2.074304443E+03
 2.016423828E+03
 1.654643677E+03
 1.423581665E+03
 1.430749512E+03
 1.751078491E+03
 1.747305542E+03
 1.233870850E+03
 1.232803467E+03
 1.426316650E+03
 1.469512085E+03
 1.345331543E+03
 1.215488647E+03
 1.013046936E+03
 9.799768066E+02
 1.202793579E+03
 1.306635986E+03
 1.330954224E+03
 1.276073486E+03
 1.929851807E+03
 1.714952026E+03
 2.107681396E+03
 1.823336914E+03
 1.777034790E+03
 1.796075928E+03
 1.824919067E+03
 1.831158691E+03
 1.810392700E+03
 1.788511963E+03
 1.942417725E+03
 2.152757812E+03
 2.079238037E+03
 1.701409180E+03
 1.366186768E+03
 1.039338501E+03
 9.339508057E+02
 9.625066528E+02
 1.194677856E+03
 1.389682373E+03
 1.158962402E+03
 9.885356445E+02
 1.292010620E+03
 1.464880737E+03
 1.413606445E+03
 1.220472412E+03
 1.036003784E+03
 1.002426941E+03
 1.162513184E+03
 1.261374512E+03
 1.293882690E+03
 1.287389160E+03
 1.968457642E+03
 2.024675293E+03
 1.932872070E+03
 1.770320679E+03
 1.718065430E+03
 1.784343628E+03
 1.826512573E+03
 1.826084961E+03
 1.777909668E+03
 1.782904175E+03
 2.152944580E+03
 2.175696533E+03
 2.038500610E+03
 1.369903931E+03
 9.488646240E+02
 8.049729614E+02
 7.588322754E+02
 7.505735474E+02
 7.704727173E+02
 8.639309692E+02
 9.575310669E+02
 8.169306030E+02
 1.090942505E+03
 1.408055420E+03
 1.448293335E+03
 1.269474243E+03
 1.108366333E+03
 1.078065430E+03
 1.152837769E+03
 1.209110596E+03
 1.237543091E+03
 1.245440674E+03
 1.608282959E+03
 1.827770508E+03
 1.878055054E+03
 1.788007324E+03
 1.771025391E+03
 1.810300903E+03
 1.827568604E+03
 1.810443848E+03
 1.877681274E+03
 2.009726929E+03
 2.150275879E+03
 1.906522827E+03
 1.370336182E+03
 9.896700439E+02
 8.196766357E+02
 7.601101074E+02
 7.421781616E+02
 7.384085693E+02
 7.480405884E+02
 7.573344727E+02
 7.691080322E+02
 7.543904419E+02
 1.058094604E+03
 1.400516846E+03
 1.444704834E+03
 1.299916016E+03
 1.182704224E+03
 1.142113647E+03
 1.153230347E+03
 1.180876343E+03
 1.210088745E+03
 1.227049072E+03
 1.224788330E+03
 1.577639526E+03
 1.896972656E+03
 1.807370728E+03
 1.785930908E+03
 1.797843384E+03
 1.783196777E+03
 1.752301514E+03
 1.902639771E+03
 1.970741333E+03
 1.939343018E+03
 1.300792725E+03
 8.562540894E+02
 7.605993042E+02
 7.435867920E+02
 7.388518677E+02
 7.372694092E+02
 7.442381592E+02
 7.478029785E+02
 7.311008911E+02
 7.282461548E+02
 7.605076294E+02
 1.044828247E+03
 1.375787476E+03
 1.405062134E+03
 1.276062744E+03
 1.189406250E+03
 1.161696777E+03
 1.176419922E+03
 1.214127441E+03
 1.251067383E+03
 1.272446167E+03
 9.615966797E+02
 1.249999146E+03
 1.827019165E+03
 1.688985352E+03
 1.649687378E+03
 1.680979004E+03
 1.709478149E+03
 1.735020752E+03
 1.700500122E+03
 1.493239136E+03
 1.319180054E+03
 8.476599731E+02
 7.597288818E+02
 7.486404419E+02
 7.470126343E+02
 7.479414062E+02
 7.518123779E+02
 7.756293335E+02
 7.903886108E+02
 7.484934692E+02
 7.273170166E+02
 8.155388184E+02
 1.096230835E+03
 1.308616089E+03
 1.272949707E+03
 1.173298096E+03
 1.138439209E+03
 1.163683838E+03
 1.222462769E+03
 1.278418335E+03
 1.311974365E+03
 1.324070679E+03
 7.803503418E+02
 1.216697754E+03
 1.867569214E+03
 1.635024292E+03
 1.574459961E+03
 1.597146729E+03
 1.649613525E+03
 1.761891479E+03
 1.607321167E+03
 1.023202209E+03
 7.915026855E+02
 7.644492798E+02
 7.549520264E+02
 7.487299194E+02
 7.468876343E+02
 7.477745361E+02
 7.507473145E+02
 7.624981079E+02
 7.858946533E+02
 7.809704590E+02
 7.488270264E+02
 8.898896484E+02
 1.147857544E+03
 1.224523193E+03
 1.146118286E+03
 1.102169922E+03
 1.101011108E+03
 1.151440063E+03
 1.231631226E+03
 1.290714722E+03
 1.319491089E+03
 1.329688843E+03
 1.266837280E+03
 1.707374878E+03
 1.657143311E+03
 1.660285645E+03
 1.693135986E+03
 1.696660645E+03
 1.396243286E+03
 9.443587646E+02
 8.295175781E+02
 8.186744385E+02
 8.075977783E+02
 7.909100952E+02
 7.742951660E+02
 7.661578369E+02
 7.625881348E+02
 7.613474731E+02
 7.611903076E+02
 7.644221191E+02
 7.700300293E+02
 7.512069702E+02
 7.349392090E+02
 8.036510010E+02
 1.209815552E+03
 1.361809082E+03
 1.333286011E+03
 1.268202759E+03
 1.231329468E+03
 1.202093628E+03
 1.176468262E+03
 1.201253052E+03
 1.251548340E+03
 1.277998047E+03
 1.853218750E+03
 1.918726440E+03
 1.776972168E+03
 1.722012817E+03
 1.711826538E+03
 1.709719482E+03
 1.901900635E+03
 2.158092529E+03
 2.170134521E+03
 2.037459839E+03
 1.867474121E+03
 1.238733765E+03
 8.855347290E+02
 7.704337769E+02
 7.549893188E+02
 7.567922974E+02
 7.614361572E+02
 7.653088989E+02
 7.509852905E+02
 7.453251343E+02
 7.707156372E+02
 1.145595825E+03
 1.356517944E+03
 1.357539795E+03
 1.277103394E+03
 1.225539307E+03
 1.243263306E+03
 1.289548950E+03
 1.324139648E+03
 1.329019897E+03
 1.323250122E+03
 1.317963379E+03
 1.807510376E+03
 1.856561890E+03
 1.830921875E+03
 1.782869141E+03
 1.771017578E+03
 1.768784180E+03
 1.828754028E+03
 1.924526611E+03
 1.880711548E+03
 1.849496338E+03
 1.793020508E+03
 1.634718628E+03
 1.535673828E+03
 1.369056519E+03
 9.303280029E+02
 8.000439453E+02
 7.974149170E+02
 7.731480103E+02
 7.428867798E+02
 7.375427246E+02
 7.391419067E+02
 1.007296875E+03
 1.317722900E+03
 1.332083252E+03
 1.228152344E+03
 1.221083496E+03
 1.291382935E+03
 1.317029053E+03
 1.321484985E+03
 1.315489868E+03
 1.249448242E+03
 1.199118408E+03
 1.732381226E+03
 2.022668823E+03
 1.871361694E+03
 1.754643433E+03
 1.786698120E+03
 1.783785645E+03
 1.920632812E+03
 2.101448975E+03
 1.939314453E+03
 1.774748291E+03
 1.774328735E+03
 1.711517700E+03
 1.714773071E+03
 1.827926758E+03
 1.395730591E+03
 1.109892944E+03
 1.125567627E+03
 1.007622009E+03
 8.458215332E+02
 7.663671265E+02
 7.702302246E+02
 1.180250488E+03
 1.342286499E+03
 1.305976562E+03
 1.226254639E+03
 1.296770020E+03
 1.334265015E+03
 1.325687012E+03
 1.315463745E+03
 1.305928467E+03
 1.121310181E+03
 8.555367432E+02
 1.553826904E+03
 2.153210693E+03
 1.849513306E+03
 1.729201294E+03
 1.824713867E+03
 1.828157593E+03
 2.023898315E+03
 2.209874512E+03
 1.956003174E+03
 1.723411621E+03
 1.613425293E+03
 1.591622070E+03
 1.555526001E+03
 1.556456787E+03
 1.502054199E+03
 1.462734619E+03
 1.474043701E+03
 1.264998413E+03
 9.673065186E+02
 8.243558960E+02
 8.393906250E+02
 1.212705811E+03
 1.341882446E+03
 1.243888672E+03
 1.165630127E+03
 1.272412842E+03
 1.333351929E+03
 1.328951538E+03
 1.321556152E+03
 1.316179565E+03
 1.027084229E+03
 6.864293823E+02
 9.777070312E+02
 2.061495850E+03
 1.893177368E+03
 1.790415283E+03
 1.913683594E+03
 1.914780640E+03
 1.963833984E+03
 1.923406372E+03
 1.764593994E+03
 1.473186523E+03
 1.557048950E+03
 1.610013306E+03
 1.497753540E+03
 1.520174316E+03
 1.579513916E+03
 1.580629150E+03
 1.527120850E+03
 1.141821045E+03
 9.112197266E+02
 8.996546021E+02
 1.139147095E+03
 1.315265869E+03
 1.339323120E+03
 1.190687378E+03
 1.121929565E+03
 1.224382446E+03
 1.330213013E+03
 1.336071045E+03
 1.332591431E+03
 1.333362427E+03
 9.783161011E+02
 7.802284546E+02
 6.714357300E+02
 1.329714111E+03
 1.588457031E+03
 1.733284790E+03
 1.737920410E+03
 1.627300171E+03
 1.608678833E+03
 1.568702637E+03
 1.520632935E+03
 1.450691528E+03
 1.483130981E+03
 1.696795288E+03
 1.601570435E+03
 1.600989624E+03
 1.640046875E+03
 1.636480103E+03
 1.570476929E+03
 1.231639648E+03
 1.113953125E+03
 1.235879272E+03
 1.336912354E+03
 1.359797119E+03
 1.350471313E+03
 1.189762207E+03
 1.091866455E+03
 1.140705200E+03
 1.308302368E+03
 1.347502075E+03
 1.348142334E+03
 1.351414551E+03
 9.350806274E+02
 8.535520020E+02
 9.533203125E+02
 8.846184692E+02
 1.360254517E+03
 1.439522583E+03
 1.636531982E+03
 1.610178711E+03
 1.737381226E+03
 2.023669678E+03
 1.979271240E+03
 1.622782471E+03
 1.433907593E+03
 1.605022461E+03
 1.738037109E+03
 1.679994873E+03
 1.702268433E+03
 1.785407104E+03
 1.880572266E+03
 1.835287476E+03
 1.478755005E+03
 1.378708374E+03
 1.379451050E+03
 1.379843628E+03
 1.376008667E+03
 1.258292480E+03
 1.086988281E+03
 1.065877075E+03
 1.242260132E+03
 1.355427002E+03
 1.366946899E+03
 1.365020996E+03
 9.628158569E+02
 8.692583008E+02
 8.573000488E+02
 6.308232422E+02
 1.130106567E+03
 1.643577881E+03
 1.896430420E+03
 1.897454102E+03
 2.097748779E+03
 2.175604736E+03
 2.105540039E+03
 1.949349243E+03
 1.820414429E+03
 1.636562012E+03
 1.718787964E+03
 1.732064209E+03
 1.864058960E+03
 2.118692627E+03
 2.068965088E+03
 2.042740601E+03
 1.586223267E+03
 1.330672485E+03
 1.394154175E+03
 1.409155762E+03
 1.408844727E+03
 1.370931641E+03
 1.208193481E+03
 1.081535156E+03
 1.180897095E+03
 1.346826904E+03
 1.382787964E+03
 1.341591064E+03
 8.830291138E+02
 8.474425659E+02
 1.137401245E+03
 7.261587524E+02
 1.292066406E+03
 1.823434448E+03
 1.816586792E+03
 1.806342407E+03
 1.820366577E+03
 1.845900391E+03
 1.852721313E+03
 1.860674316E+03
 1.860280029E+03
 1.896047119E+03
 1.935315552E+03
 1.938393188E+03
 2.106612549E+03
 2.228022461E+03
 1.956257080E+03
 1.748193848E+03
 1.436126587E+03
 1.188721069E+03
 1.266337524E+03
 1.410170166E+03
 1.450372559E+03
 1.440244263E+03
 1.375964233E+03
 1.250703613E+03
 1.239956909E+03
 1.342616089E+03
 1.383761230E+03
 1.260917847E+03
 7.750715942E+02
 7.870759277E+02
 1.836774048E+03
 1.613175903E+03
 1.965542725E+03
 1.946734497E+03
 1.736601685E+03
 1.794289917E+03
 1.803191162E+03
 1.799073364E+03
 1.770136597E+03
 1.844927856E+03
 1.915949463E+03
 1.856121338E+03
 1.911680786E+03
 2.005973755E+03
 1.972256470E+03
 1.589996704E+03
 1.210881470E+03
 1.068284790E+03
 1.032136475E+03
 1.017836365E+03
 1.007119019E+03
 1.232602417E+03
 1.452631348E+03
 1.488056763E+03
 1.436813232E+03
 1.354393066E+03
 1.316094116E+03
 1.343274048E+03
 1.375033447E+03
 1.185189697E+03
 7.131549072E+02
 7.019044800E+02
 2.078775391E+03
 2.144533936E+03
 2.095759766E+03
 1.812238403E+03
 1.759310791E+03
 1.837735107E+03
 1.866187378E+03
 1.855071411E+03
 1.865949829E+03
 1.951059570E+03
 1.857678711E+03
 1.723206299E+03
 1.862425659E+03
 1.723815796E+03
 1.205039551E+03
 8.726764526E+02
 7.772351685E+02
 7.526967163E+02
 7.399585571E+02
 7.742161865E+02
 7.874628296E+02
 9.766881714E+02
 1.368152710E+03
 1.498832031E+03
 1.475335938E+03
 1.390758545E+03
 1.340023926E+03
 1.327854126E+03
 1.359822388E+03
 1.244773804E+03
 8.223283691E+02
 8.314374390E+02
 2.093257080E+03
 2.056770264E+03
 2.055776367E+03
 1.933051025E+03
 1.915586914E+03
 1.895012451E+03
 1.872450439E+03
 1.844927612E+03
 1.832404785E+03
 1.919061279E+03
 1.728084961E+03
 1.818567993E+03
 1.556739746E+03
 9.337670898E+02
 7.770340576E+02
 7.628289185E+02
 7.543719482E+02
 7.444475708E+02
 7.325176392E+02
 7.385417480E+02
 7.364982910E+02
 8.395029907E+02
 1.168469971E+03
 1.443440186E+03
 1.497501465E+03
 1.440020874E+03
 1.387985596E+03
 1.357701782E+03
 1.362189697E+03
 1.362775757E+03
 1.221146240E+03
 1.250422607E+03
 1.678818481E+03
 1.920152344E+03
 1.982875977E+03
 2.109400635E+03
 2.135542725E+03
 2.108275146E+03
 1.998424194E+03
 1.936495361E+03
 1.800183594E+03
 1.862348267E+03
 1.669661743E+03
 1.506467773E+03
 8.909597778E+02
 7.804233398E+02
 7.730839844E+02
 7.776953125E+02
 7.686742554E+02
 7.678825684E+02
 7.287092285E+02
 7.166015625E+02
 7.344545288E+02
 8.562019653E+02
 1.092812134E+03
 1.405061157E+03
 1.490613037E+03
 1.463277710E+03
 1.439413086E+03
 1.422728027E+03
 1.408823975E+03
 1.395944580E+03
 1.366792603E+03
 1.362362427E+03
 1.362066772E+03
 1.857293701E+03
 1.927191406E+03
 2.030862915E+03
 2.103666260E+03
 2.109694824E+03
 2.079128906E+03
 1.993477783E+03
 1.800716064E+03
 1.890507202E+03
 1.548439087E+03
 9.446416626E+02
 7.947552490E+02
 7.716973877E+02
 7.764644775E+02
 7.825162964E+02
 7.834898682E+02
 7.871817627E+02
 7.262780762E+02
 6.994196167E+02
 8.209056396E+02
 1.232785889E+03
 1.405537476E+03
 1.478001465E+03
 1.472451538E+03
 1.433877075E+03
 1.416868530E+03
 1.418564331E+03
 1.409761230E+03
 1.387417969E+03
 1.368654785E+03
 1.357584961E+03
 7.843878174E+02
 1.575830078E+03
 1.832126343E+03
 1.664154175E+03
 1.639585205E+03
 1.650605591E+03
 1.672971191E+03
 1.696648560E+03
 1.738458618E+03
 1.555623901E+03
 1.472436401E+03
 1.262235107E+03
 9.592178345E+02
 8.222844849E+02
 7.482245483E+02
 7.398479614E+02
 7.351018677E+02
 7.304467163E+02
 7.308282471E+02
 7.340010986E+02
 7.254991455E+02
 8.796478271E+02
 1.277626709E+03
 1.407055420E+03
 1.310861084E+03
 1.192848145E+03
 1.111216553E+03
 1.160598022E+03
 1.281426514E+03
 1.338634399E+03
 1.352504150E+03
 1.351421997E+03
 1.686949951E+03
 1.788025391E+03
 1.819587158E+03
 1.776150513E+03
 1.790761719E+03
 1.786593750E+03
 1.793762817E+03
 1.265875488E+03
 1.106086182E+03
 1.148042847E+03
 1.221174438E+03
 1.165547607E+03
 9.385388794E+02
 8.290007935E+02
 7.944893188E+02
 7.782784424E+02
 7.681851196E+02
 7.667589722E+02
 7.807931519E+02
 7.795587158E+02
 7.684652100E+02
 7.722135010E+02
 9.771643066E+02
 1.315676758E+03
 1.409567749E+03
 1.411634033E+03
 1.366181274E+03
 1.299187134E+03
 1.268218384E+03
 1.278370483E+03
 1.289640381E+03
 1.289049316E+03
 1.975214966E+03
 1.768580933E+03
 1.692103394E+03
 1.681454224E+03
 1.674442261E+03
 1.660845947E+03
 1.740342163E+03
 2.081005127E+03
 2.130431641E+03
 1.917392212E+03
 1.828630249E+03
 1.603298584E+03
 1.416587524E+03
 1.227609741E+03
 9.798810425E+02
 8.329223022E+02
 8.019316406E+02
 7.733459473E+02
 7.594827881E+02
 7.536517944E+02
 7.743291626E+02
 1.150378296E+03
 1.398359131E+03
 1.388636841E+03
 1.356723267E+03
 1.335863159E+03
 1.334533081E+03
 1.341802368E+03
 1.343953003E+03
 1.340314453E+03
 1.323030273E+03
 1.323362549E+03
 1.865387573E+03
 1.854881226E+03
 1.680751709E+03
 1.725007202E+03
 1.752744873E+03
 1.717539673E+03
 1.761113892E+03
 1.944962769E+03
 1.938356812E+03
 1.740735840E+03
 1.695352295E+03
 1.738584717E+03
 1.904189331E+03
 1.898683350E+03
 1.451753296E+03
 9.775637207E+02
 8.240662231E+02
 7.712989502E+02
 7.579264526E+02
 7.646633301E+02
 9.618675537E+02
 1.280383545E+03
 1.343168213E+03
 1.336846558E+03
 1.330594727E+03
 1.324861328E+03
 1.316777710E+03
 1.304438965E+03
 1.265655884E+03
 1.003769714E+03
 8.576743774E+02
 9.734766235E+02
 1.778431763E+03
 1.876362793E+03
 1.768616089E+03
 1.766685425E+03
 1.797375000E+03
 1.790901855E+03
 1.844293335E+03
 1.847108643E+03
 1.763304199E+03
 1.760030273E+03
 1.779307739E+03
 1.688272583E+03
 1.697840576E+03
 1.880363770E+03
 2.002947266E+03
 1.716706055E+03
 1.395064087E+03
 9.867956543E+02
 7.964373779E+02
 7.407527466E+02
 9.135338135E+02
 1.282183838E+03
 1.334364380E+03
 1.327990479E+03
 1.324223511E+03
 1.318238770E+03
 1.309571411E+03
 1.297834717E+03
 1.209163330E+03
 7.371691284E+02
 6.976447754E+02
 8.128629150E+02
 8.581469116E+02
 1.285401978E+03
 1.832432251E+03
 1.857586426E+03
 1.757083740E+03
 1.819416260E+03
 1.917661621E+03
 1.821513916E+03
 1.734565430E+03
 1.713249268E+03
 1.714854858E+03
 1.638937622E+03
 1.620480225E+03
 1.629943481E+03
 1.702649414E+03
 1.631492554E+03
 1.576123657E+03
 1.236376953E+03
 9.485903931E+02
 7.878623047E+02
 1.083001587E+03
 1.316067017E+03
 1.321272461E+03
 1.321857666E+03
 1.320892944E+03
 1.317517090E+03
 1.312723022E+03
 1.306607056E+03
 1.295095337E+03
 1.028957275E+03
 7.676121216E+02
 7.945238647E+02
 6.237763672E+02
 7.738869019E+02
 1.801410645E+03
 1.732202026E+03
 1.859876953E+03
 1.905864014E+03
 1.792002686E+03
 1.675700562E+03
 1.393469849E+03
 1.380510620E+03
 1.712088623E+03
 1.692702271E+03
 1.664340820E+03
 1.632376099E+03
 1.628941895E+03
 1.657902710E+03
 1.466986084E+03
 1.029975220E+03
 8.907689819E+02
 9.910906982E+02
 1.197748535E+03
 1.319673584E+03
 1.326595337E+03
 1.330164795E+03
 1.331278809E+03
 1.330277954E+03
 1.329074097E+03
 1.327681641E+03
 1.321300537E+03
 1.131513062E+03
 8.443076782E+02
 8.913357544E+02
 4.874360046E+02
 5.301544189E+02
 1.260824585E+03
 1.328609131E+03
 1.451427368E+03
 1.469438232E+03
 1.358858398E+03
 1.309419189E+03
 1.311408447E+03
 1.331041626E+03
 1.458830933E+03
 1.726576660E+03
 1.680881714E+03
 1.678524536E+03
 1.709303223E+03
 1.838652222E+03
 1.594976440E+03
 1.152278931E+03
 1.243207886E+03
 1.311177734E+03
 1.328776123E+03
 1.335429321E+03
 1.341699463E+03
 1.346712769E+03
 1.349304077E+03
 1.351274292E+03
 1.353486816E+03
 1.353185181E+03
 1.345774414E+03
 1.139279541E+03
 8.106494141E+02
 1.099725586E+03
 4.794114685E+02
 4.532502747E+02
 8.158168335E+02
 1.273274414E+03
 1.302559204E+03
 1.307114136E+03
 1.313744751E+03
 1.332651733E+03
 1.343944702E+03
 1.365953247E+03
 1.394352661E+03
 1.620613281E+03
 1.741038940E+03
 1.730370483E+03
 1.877900879E+03
 2.058382324E+03
 1.700362671E+03
 1.372325806E+03
 1.362719604E+03
 1.353125977E+03
 1.353618408E+03
 1.359575317E+03
 1.366557251E+03
 1.371572021E+03
 1.373752686E+03
 1.376922119E+03
 1.381815186E+03
 1.379599487E+03
 1.364743042E+03
 1.121749390E+03
 7.875799561E+02
 1.117488159E+03
 7.078843384E+02
 5.204398193E+02
 7.245894775E+02
 1.298385742E+03
 1.598013428E+03
 1.693313599E+03
 1.634631348E+03
 1.573176636E+03
 1.539362061E+03
 1.453912354E+03
 1.398233521E+03
 1.595593384E+03
 1.808862061E+03
 1.751590576E+03
 1.823680420E+03
 2.129482910E+03
 1.764818115E+03
 1.369150879E+03
 1.354802979E+03
 1.387143677E+03
 1.385633545E+03
 1.388554199E+03
 1.396279297E+03
 1.402302856E+03
 1.403364502E+03
 1.402625977E+03
 1.406531982E+03
 1.402954834E+03
 1.364789551E+03
 9.710061646E+02
 8.414006348E+02
 1.049454956E+03
 8.133377075E+02
 5.553737183E+02
 1.094599854E+03
 1.630745483E+03
 1.873261230E+03
 1.939441406E+03
 1.916796997E+03
 1.916359863E+03
 1.903399414E+03
 1.869044922E+03
 1.686205322E+03
 1.636519287E+03
 1.865248901E+03
 1.793018921E+03
 1.810875122E+03
 2.079840088E+03
 2.158270264E+03
 1.831750366E+03
 1.355287231E+03
 1.327216431E+03
 1.405398315E+03
 1.416050293E+03
 1.427015747E+03
 1.436905640E+03
 1.438531006E+03
 1.430486694E+03
 1.421793701E+03
 1.414471924E+03
 1.216937988E+03
 7.311535034E+02
 8.514225464E+02
 7.828858643E+02
 1.075493286E+03
 7.438740845E+02
 1.823552734E+03
 1.881312744E+03
 1.747039429E+03
 1.787246948E+03
 1.840569214E+03
 1.861412354E+03
 1.836284668E+03
 1.793582520E+03
 1.725567993E+03
 1.856845703E+03
 1.841987549E+03
 1.772430054E+03
 1.805898193E+03
 1.911968140E+03
 2.044772461E+03
 1.500172119E+03
 1.253520142E+03
 1.111047974E+03
 1.285229248E+03
 1.408214355E+03
 1.443887573E+03
 1.461760376E+03
 1.464187500E+03
 1.449507202E+03
 1.428028320E+03
 1.409304932E+03
 9.277584229E+02
 7.193311768E+02
 7.678916626E+02
 7.056263428E+02
 2.105633301E+03
 1.613879272E+03
 2.083235352E+03
 1.926420410E+03
 1.907309692E+03
 1.857284302E+03
 1.874164917E+03
 1.884847046E+03
 1.858798828E+03
 1.754615356E+03
 1.675483276E+03
 1.903431030E+03
 1.967727417E+03
 1.694350464E+03
 1.690056519E+03
 1.799675415E+03
 1.430196289E+03
 8.521165161E+02
 7.812149048E+02
 8.098947754E+02
 9.053588867E+02
 1.218332275E+03
 1.422194092E+03
 1.460762695E+03
 1.466375000E+03
 1.453000122E+03
 1.433666992E+03
 1.405063721E+03
 9.312741699E+02
 7.013781738E+02
 7.627691040E+02
 7.443008423E+02
 2.119169434E+03
 2.088883545E+03
 2.026065796E+03
 1.904663208E+03
 2.162755127E+03
 1.911904907E+03
 1.877765869E+03
 1.959087402E+03
 1.868921997E+03
 1.844941650E+03
 1.880069702E+03
 1.922547852E+03
 1.711115234E+03
 1.465489258E+03
 1.311584473E+03
 1.193752075E+03
 8.350028687E+02
 7.395492554E+02
 7.270119629E+02
 8.181141357E+02
 1.009295959E+03
 1.205392456E+03
 1.412494263E+03
 1.451957642E+03
 1.450671631E+03
 1.438677124E+03
 1.424782471E+03
 1.401565186E+03
 1.158835571E+03
 8.668352051E+02
 8.314650269E+02
 9.459219360E+02
 2.017484741E+03
 2.184301514E+03
 2.121430420E+03
 2.060681641E+03
 2.061185547E+03
 1.942163696E+03
 1.876742188E+03
 2.007811768E+03
 2.062560791E+03
 1.859225342E+03
 2.077060791E+03
 1.910710083E+03
 1.400712891E+03
 1.050403076E+03
 8.774824829E+02
 8.528409424E+02
 8.003771362E+02
 7.249959717E+02
 7.035682373E+02
 8.905138550E+02
 1.319308350E+03
 1.421750000E+03
 1.428184448E+03
 1.421317017E+03
 1.407871948E+03
 1.397221680E+03
 1.387764038E+03
 1.366965332E+03
 1.329656982E+03
 1.146292480E+03
 1.064387573E+03
 1.144251953E+03
 1.836277466E+03
 1.883133667E+03
 2.022357666E+03
 2.064831787E+03
 1.970875854E+03
 1.906848755E+03
 1.903850952E+03
 1.908299805E+03
 1.826944580E+03
 1.812120117E+03
 1.858996338E+03
 1.594474609E+03
 1.482074951E+03
 1.086899536E+03
 8.751499634E+02
 7.956795044E+02
 7.875001831E+02
 7.643043823E+02
 7.316606445E+02
 7.146263428E+02
 7.941405029E+02
 1.205865601E+03
 1.433691772E+03
 1.437350708E+03
 1.405173828E+03
 1.375507202E+03
 1.373231934E+03
 1.377514160E+03
 1.364656860E+03
 1.347302734E+03
 1.313765381E+03
 1.304005981E+03
 8.152496948E+02
 1.759536621E+03
 1.818353516E+03
 1.874374146E+03
 1.917822021E+03
 1.894797974E+03
 1.873389404E+03
 1.815472534E+03
 1.767234253E+03
 1.831284424E+03
 1.781098633E+03
 1.687917725E+03
 1.634085083E+03
 1.345258545E+03
 1.051961914E+03
 8.076250610E+02
 7.620679932E+02
 7.692939453E+02
 7.841176147E+02
 7.818837891E+02
 7.281737671E+02
 8.294100342E+02
 1.261949951E+03
 1.442388672E+03
 1.336719116E+03
 1.181666870E+03
 1.036669922E+03
 1.148589722E+03
 1.318433594E+03
 1.352492065E+03
 1.349755981E+03
 1.342896240E+03
 1.767045898E+03
 1.929197266E+03
 2.096904785E+03
 1.888715698E+03
 1.881340210E+03
 1.895534912E+03
 1.856628784E+03
 1.891743164E+03
 1.748423218E+03
 1.849665649E+03
 1.921643066E+03
 1.822562378E+03
 1.534319702E+03
 1.171323486E+03
 9.988562622E+02
 9.330282593E+02
 9.198294067E+02
 8.971769409E+02
 9.131171265E+02
 8.948713989E+02
 8.354155884E+02
 7.848540039E+02
 8.206497192E+02
 1.228830933E+03
 1.450549683E+03
 1.491532349E+03
 1.462331909E+03
 1.381960083E+03
 1.325438477E+03
 1.292167114E+03
 1.251977173E+03
 1.216239624E+03
 1.937479004E+03
 1.695942993E+03
 1.752458008E+03
 1.745017822E+03
 1.725681396E+03
 1.777679810E+03
 1.784040771E+03
 1.933691895E+03
 2.104354736E+03
 2.026030884E+03
 1.943358154E+03
 2.049674805E+03
 1.786943481E+03
 1.617743774E+03
 1.300654785E+03
 9.998676147E+02
 8.919337158E+02
 8.064514160E+02
 7.651087036E+02
 7.546533203E+02
 7.560981445E+02
 9.551299438E+02
 1.324326538E+03
 1.436185669E+03
 1.419206909E+03
 1.401844971E+03
 1.394386353E+03
 1.387743652E+03
 1.377031250E+03
 1.363506592E+03
 1.313947266E+03
 1.291100220E+03
 1.913076294E+03
 1.683067749E+03
 1.711161255E+03
 1.714534912E+03
 1.746248657E+03
 1.673023560E+03
 1.754184937E+03
 1.936797852E+03
 1.818995972E+03
 1.783176758E+03
 1.933175903E+03
 1.800663208E+03
 1.664713013E+03
 1.598554932E+03
 1.604328247E+03
 1.541511353E+03
 1.326807617E+03
 8.977885132E+02
 7.793464966E+02
 9.865794067E+02
 1.280623779E+03
 1.372885742E+03
 1.369030151E+03
 1.358196289E+03
 1.348699097E+03
 1.339845947E+03
 1.329078369E+03
 1.313199463E+03
 1.126357422E+03
 6.656596069E+02
 6.202392578E+02
 7.042205200E+02
 5.244673462E+02
 1.144914795E+03