TITLE     = "fluent19.2.0  build-id: 10236"
VARIABLES = "Temperature"
DATASETAUXDATA Common.DensityVar="55"
DATASETAUXDATA Common.PressureVar="4"
DATASETAUXDATA Common.TemperatureVar="19"
DATASETAUXDATA Common.TurbulentDynamicViscosityVar="59"
DATASETAUXDATA Common.UVar="7"
DATASETAUXDATA Common.VectorVarsAreVelocity="TRUE"
DATASETAUXDATA Common.ViscosityVar="58"
DATASETAUXDATA Common.VVar="10"
DATASETAUXDATA Common.WVar="13"
ZONE T="Rectangular zone"
 STRANDID=0, SOLUTIONTIME=0.0025
 I=32, J=16, K=16, ZONETYPE=Ordered
 DATAPACKING=POINT
 DT=(SINGLE )
 8.100800781E+02
 1.131023438E+03
 1.154480225E+03
 1.112057617E+03
 1.144513306E+03
 1.203894897E+03
 9.616113892E+02
 7.910693970E+02
 7.619608765E+02
 7.574533691E+02
 7.569436035E+02
 7.574760132E+02
 7.587615356E+02
 7.590328979E+02
 7.586314087E+02
 7.605841064E+02
 7.573858643E+02
 7.490178223E+02
 7.188320312E+02
 7.004310913E+02
 7.406481323E+02
 1.019573242E+03
 1.158207275E+03
 1.158059326E+03
 1.194522095E+03
 1.180396851E+03
 1.127685913E+03
 1.132302246E+03
 1.187016846E+03
 1.238965332E+03
 1.265571899E+03
 1.277632324E+03
 1.099497314E+03
 1.553903687E+03
 1.614414429E+03
 1.644033447E+03
 1.675808838E+03
 1.655658813E+03
 1.491550049E+03
 1.306966797E+03
 1.110105957E+03
 9.095207520E+02
 7.998433228E+02
 7.553624878E+02
 7.465545654E+02
 7.454104004E+02
 7.446090088E+02
 7.418579712E+02
 7.347060547E+02
 7.321546631E+02
 7.138145752E+02
 6.988691406E+02
 8.245578003E+02
 1.173911987E+03
 1.217691406E+03
 1.218359375E+03
 1.149951782E+03
 1.088619995E+03
 1.132553589E+03
 1.228079834E+03
 1.280382324E+03
 1.306376953E+03
 1.314658691E+03
 1.315370605E+03
 1.613784058E+03
 1.779926880E+03
 1.748837524E+03
 1.778557373E+03
 1.793703369E+03
 1.798992554E+03
 1.777919312E+03
 1.766097656E+03
 1.630512207E+03
 1.657416016E+03
 1.127216309E+03
 8.251967773E+02
 7.699700928E+02
 7.762105713E+02
 7.878923950E+02
 7.780964355E+02
 7.464296265E+02
 7.339624634E+02
 7.288414917E+02
 7.280092773E+02
 9.802185059E+02
 1.300889526E+03
 1.282242554E+03
 1.196298706E+03
 1.053377808E+03
 1.126901855E+03
 1.259471436E+03
 1.315815430E+03
 1.323163208E+03
 1.320956299E+03
 1.318414062E+03
 1.315819458E+03
 1.931712891E+03
 1.807513306E+03
 1.769280396E+03
 1.907508911E+03
 1.866889893E+03
 1.791189453E+03
 1.726834351E+03
 1.829551514E+03
 1.743729370E+03
 1.994568604E+03
 1.388881348E+03
 9.771405029E+02
 9.109181519E+02
 9.716930542E+02
 1.014364990E+03
 9.472862549E+02
 7.986804199E+02
 7.494699097E+02
 7.400633545E+02
 7.686109619E+02
 1.198585205E+03
 1.329699707E+03
 1.282030151E+03
 1.150998779E+03
 1.061412720E+03
 1.248291138E+03
 1.320512695E+03
 1.329939209E+03
 1.326648315E+03
 1.321851440E+03
 1.317803711E+03
 1.314897827E+03
 2.199951660E+03
 1.983793335E+03
 1.994861450E+03
 2.124150635E+03
 1.922672119E+03
 1.856916870E+03
 1.814682983E+03
 2.023854492E+03
 1.881381592E+03
 1.985632324E+03
 1.506949707E+03
 1.315250000E+03
 1.326412109E+03
 1.381799683E+03
 1.401289551E+03
 1.196498901E+03
 8.433192139E+02
 7.659835815E+02
 7.441072998E+02
 8.948500977E+02
 1.284086792E+03
 1.320387329E+03
 1.282005981E+03
 1.120927734E+03
 1.063834351E+03
 1.273526245E+03
 1.329693481E+03
 1.332284302E+03
 1.327610352E+03
 1.323091064E+03
 1.319750732E+03
 1.317317627E+03
 2.178334717E+03
 2.078716309E+03
 2.012800415E+03
 2.024983765E+03
 1.818082153E+03
 1.843948242E+03
 1.841728027E+03
 2.081068604E+03
 1.953899414E+03
 1.967494263E+03
 1.519104248E+03
 1.508161743E+03
 1.548622925E+03
 1.574899170E+03
 1.541652588E+03
 1.189701416E+03
 8.430808105E+02
 7.765562744E+02
 8.018440552E+02
 1.041476929E+03
 1.367572510E+03
 1.330568604E+03
 1.296197632E+03
 1.132109253E+03
 1.042446533E+03
 1.272866821E+03
 1.336511719E+03
 1.336222656E+03
 1.331498413E+03
 1.327689209E+03
 1.325764160E+03
 1.321215576E+03
 2.162837402E+03
 2.104062744E+03
 1.977273926E+03
 1.979246216E+03
 1.856452759E+03
 1.848064087E+03
 1.830577515E+03
 1.904416992E+03
 2.017157227E+03
 1.914282837E+03
 1.667446899E+03
 1.588004272E+03
 1.589391724E+03
 1.597304321E+03
 1.555906982E+03
 1.270153809E+03
 9.192853394E+02
 8.336595459E+02
 1.064010376E+03
 1.307552490E+03
 1.429638428E+03
 1.355883301E+03
 1.303296753E+03
 1.162607178E+03
 1.007225769E+03
 1.220713867E+03
 1.334921509E+03
 1.340023560E+03
 1.336348877E+03
 1.333721680E+03
 1.333220337E+03
 1.324823853E+03
 2.089495361E+03
 2.066131592E+03
 1.984852783E+03
 2.041798584E+03
 1.958344971E+03
 1.842272339E+03
 1.830442139E+03
 1.941680908E+03
 2.077781982E+03
 1.897850586E+03
 1.926231567E+03
 1.608469238E+03
 1.578542969E+03
 1.595505249E+03
 1.593629272E+03
 1.627702637E+03
 1.195381470E+03
 9.949354248E+02
 1.236692871E+03
 1.435338623E+03
 1.462442139E+03
 1.400178711E+03
 1.282454468E+03
 1.166702637E+03
 9.829327393E+02
 1.133643677E+03
 1.323481445E+03
 1.343588379E+03
 1.341438232E+03
 1.339775879E+03
 1.339605591E+03
 1.333087769E+03
 1.981703125E+03
 2.006000244E+03
 2.088606689E+03
 2.051890869E+03
 1.903560547E+03
 1.833324219E+03
 1.822553467E+03
 2.002340088E+03
 1.993082275E+03
 1.779276489E+03
 1.964926025E+03
 1.709609131E+03
 1.699573486E+03
 1.761928589E+03
 1.840424194E+03
 1.926086304E+03
 1.653041870E+03
 1.362150879E+03
 1.135339600E+03
 1.310891479E+03
 1.450338135E+03
 1.449915649E+03
 1.303277954E+03
 1.173748535E+03
 9.930535889E+02
 1.047743408E+03
 1.285745239E+03
 1.339609497E+03
 1.342870850E+03
 1.341496826E+03
 1.339752930E+03
 1.334008545E+03
 2.011823853E+03
 1.963567139E+03
 2.075577393E+03
 1.951406982E+03
 1.807835938E+03
 1.842658813E+03
 1.819590454E+03
 1.824353516E+03
 1.854624634E+03
 1.877557129E+03
 1.966323608E+03
 1.953647217E+03
 1.891097534E+03
 1.879754639E+03
 1.900371704E+03
 1.822882202E+03
 1.834037842E+03
 1.724870239E+03
 1.259385376E+03
 1.055556152E+03
 1.324055176E+03
 1.467545776E+03
 1.380216919E+03
 1.194630737E+03
 1.010559875E+03
 1.013246033E+03
 1.232213135E+03
 1.316279297E+03
 1.331407104E+03
 1.331880615E+03
 1.327679443E+03
 1.320428589E+03
 2.024522217E+03
 1.969593506E+03
 1.873223633E+03
 1.779094482E+03
 1.795976807E+03
 1.851326050E+03
 1.791922974E+03
 1.762607300E+03
 1.948744507E+03
 2.079157227E+03
 1.761201904E+03
 1.552469849E+03
 1.326418213E+03
 1.219310913E+03
 1.277779663E+03
 1.261488647E+03
 1.425754883E+03
 1.521858154E+03
 1.262208130E+03
 8.956196289E+02
 1.078526001E+03
 1.417452515E+03
 1.440243042E+03
 1.245409668E+03
 1.057807373E+03
 1.047798462E+03
 1.192878784E+03
 1.271726440E+03
 1.295640259E+03
 1.299889771E+03
 1.296228882E+03
 1.287092041E+03
 1.578192383E+03
 1.839180298E+03
 1.771001221E+03
 1.699392212E+03
 1.765138062E+03
 1.808448853E+03
 1.768068481E+03
 1.827254761E+03
 2.029015869E+03
 2.046179321E+03
 1.675246338E+03
 1.096708862E+03
 8.876744385E+02
 7.980013428E+02
 7.710993652E+02
 7.665724487E+02
 8.338253174E+02
 9.562034302E+02
 9.556726685E+02
 7.916751709E+02
 8.986467285E+02
 1.322564941E+03
 1.465294312E+03
 1.310405396E+03
 1.149640747E+03
 1.119224121E+03
 1.178553955E+03
 1.221839233E+03
 1.241359741E+03
 1.249185547E+03
 1.250451172E+03
 1.246344238E+03
 1.180930664E+03
 1.918956787E+03
 1.816916626E+03
 1.745460571E+03
 1.762308716E+03
 1.771442749E+03
 1.943374146E+03
 1.991794434E+03
 1.925869385E+03
 1.844420898E+03
 1.319364380E+03
 9.011601562E+02
 7.828584595E+02
 7.489231567E+02
 7.389960938E+02
 7.369049072E+02
 7.447967529E+02
 7.519525146E+02
 7.609839478E+02
 7.313543701E+02
 9.356669922E+02
 1.346007080E+03
 1.463668945E+03
 1.340025635E+03
 1.216040649E+03
 1.168616455E+03
 1.170960205E+03
 1.185655396E+03
 1.204685425E+03
 1.222731934E+03
 1.233667969E+03
 1.239333496E+03
 9.111458130E+02
 1.789791260E+03
 1.652930054E+03
 1.679806274E+03
 1.720276245E+03
 1.704505859E+03
 1.795686523E+03
 1.818900757E+03
 1.750200073E+03
 1.342142212E+03
 8.745415039E+02
 7.626704712E+02
 7.434977417E+02
 7.386515503E+02
 7.361474609E+02
 7.355751953E+02
 7.417654419E+02
 7.377424316E+02
 7.253519897E+02
 7.469849854E+02
 9.978316040E+02
 1.359473511E+03
 1.420943726E+03
 1.312799561E+03
 1.218985962E+03
 1.174651489E+03
 1.169157593E+03
 1.188864990E+03
 1.220031128E+03
 1.247660645E+03
 1.263795044E+03
 1.272883179E+03
 8.263858032E+02
 1.645700928E+03
 1.533355103E+03
 1.638734131E+03
 1.725851074E+03
 1.704715698E+03
 1.593297119E+03
 1.421058350E+03
 1.126152344E+03
 8.315046387E+02
 7.634886475E+02
 7.527440186E+02
 7.512590942E+02
 7.519139404E+02
 7.541351929E+02
 7.594950562E+02
 7.813887939E+02
 7.824804077E+02
 7.472346802E+02
 8.066401978E+02
 1.064620728E+03
 1.284381348E+03
 1.286611816E+03
 1.206312988E+03
 1.159307251E+03
 1.150635132E+03
 1.177692993E+03
 1.222871948E+03
 1.262846436E+03
 1.287879761E+03
 1.300148438E+03
 1.306553101E+03
 7.761041260E+02
 1.624590698E+03
 1.662066162E+03
 1.683491089E+03
 1.814757568E+03
 1.763887329E+03
 1.474826538E+03
 9.317819824E+02
 7.764086304E+02
 7.587692871E+02
 7.530593262E+02
 7.519322510E+02
 7.526318359E+02
 7.541240845E+02
 7.572451172E+02
 7.625595093E+02
 7.821305542E+02
 8.207245483E+02
 7.994786987E+02
 8.135625610E+02
 1.020871643E+03
 1.170338501E+03
 1.166641602E+03
 1.137930542E+03
 1.134476562E+03
 1.155275513E+03
 1.208843628E+03
 1.261102539E+03
 1.294939209E+03
 1.310963135E+03
 1.317715698E+03
 1.321265381E+03
 1.002224426E+03
 1.685469971E+03
 1.690937256E+03
 1.456674194E+03
 1.141930298E+03
 1.182648193E+03
 9.791010742E+02
 8.147517700E+02
 7.854564819E+02
 7.724638062E+02
 7.666136475E+02
 7.635221558E+02
 7.612980957E+02
 7.605585938E+02
 7.602025146E+02
 7.610684204E+02
 7.657365112E+02
 7.651477661E+02
 7.402877808E+02
 7.302416382E+02
 7.551951294E+02
 1.119409424E+03
 1.348631226E+03
 1.330592529E+03
 1.322597412E+03
 1.287611816E+03
 1.231032227E+03
 1.216289307E+03
 1.231526001E+03
 1.251489868E+03
 1.268107788E+03
 1.277176392E+03
 1.862954346E+03
 1.658178101E+03
 1.640311035E+03
 1.708430664E+03
 1.918589844E+03
 2.127312500E+03
 1.989243164E+03
 1.827543945E+03
 1.875111694E+03
 1.164001221E+03
 8.514624023E+02
 7.647345581E+02
 7.513394775E+02
 7.520210571E+02
 7.539451294E+02
 7.577976685E+02
 7.647650146E+02
 7.528231812E+02
 7.482359009E+02
 8.655326538E+02
 1.326911133E+03
 1.397295898E+03
 1.366380127E+03
 1.337980225E+03
 1.320556519E+03
 1.318803955E+03
 1.330453857E+03
 1.338798462E+03
 1.336512817E+03
 1.331212646E+03
 1.326135864E+03
 1.321367798E+03
 1.700278809E+03
 1.632458008E+03
 1.666918335E+03
 1.723254883E+03
 1.805945312E+03
 1.870317627E+03
 1.837902344E+03
 1.722188477E+03
 1.686574463E+03
 1.623317871E+03
 1.599552124E+03
 1.038341675E+03
 8.797630615E+02
 9.156733398E+02
 9.340726318E+02
 8.210779419E+02
 7.615282593E+02
 7.431288452E+02
 7.336158447E+02
 7.906434937E+02
 1.203140869E+03
 1.382218628E+03
 1.360554565E+03
 1.335273926E+03
 1.335105591E+03
 1.334930786E+03
 1.333936523E+03
 1.331018677E+03
 1.324235840E+03
 1.316406860E+03
 1.304031616E+03
 1.297822754E+03
 1.723151123E+03
 1.707095337E+03
 1.759754761E+03
 1.783031128E+03
 1.792023438E+03
 1.741486938E+03
 1.685240112E+03
 1.678923218E+03
 1.621088013E+03
 1.724024658E+03
 1.784300171E+03
 1.401690063E+03
 1.306630859E+03
 1.385517822E+03
 1.410347290E+03
 1.215254761E+03
 9.015778809E+02
 7.826040039E+02
 7.317383423E+02
 8.841322021E+02
 1.304566650E+03
 1.372332886E+03
 1.353262939E+03
 1.343176758E+03
 1.345106323E+03
 1.335922852E+03
 1.326420654E+03
 1.319097168E+03
 1.312216431E+03
 1.304693848E+03
 1.249676636E+03
 1.194484619E+03
 1.711540527E+03
 2.012815308E+03
 1.921461670E+03
 1.800978516E+03
 1.822014282E+03
 1.788258545E+03
 1.700881836E+03
 1.659229492E+03
 1.700847046E+03
 1.818943726E+03
 1.460325439E+03
 1.459296387E+03
 1.488846436E+03
 1.559536621E+03
 1.564461060E+03
 1.503719238E+03
 1.049317749E+03
 8.334655762E+02
 7.652561035E+02
 9.898215942E+02
 1.344990723E+03
 1.366007568E+03
 1.337547363E+03
 1.338148193E+03
 1.344563477E+03
 1.335832031E+03
 1.327755981E+03
 1.321015991E+03
 1.315185547E+03
 1.308458740E+03
 1.127847534E+03
 8.539960938E+02
 1.949941162E+03
 2.187281982E+03
 2.004802734E+03
 1.833268799E+03
 1.763313354E+03
 1.774524292E+03
 1.814032349E+03
 1.702356079E+03
 1.720818848E+03
 1.440554810E+03
 1.457381470E+03
 1.507220337E+03
 1.534442871E+03
 1.662146362E+03
 1.663000244E+03
 1.463600342E+03
 9.789895020E+02
 8.066135254E+02
 8.918056641E+02
 1.258243530E+03
 1.365605713E+03
 1.365137817E+03
 1.314049438E+03
 1.317113403E+03
 1.345182251E+03
 1.339465210E+03
 1.333092651E+03
 1.328896240E+03
 1.326243042E+03
 1.320946899E+03
 1.044447021E+03
 6.532898560E+02
 1.843093628E+03
 2.174229736E+03
 1.664232788E+03
 1.736283447E+03
 1.917537598E+03
 1.939160889E+03
 1.939171265E+03
 1.891649170E+03
 1.605324951E+03
 1.424152954E+03
 1.473580566E+03
 1.602662842E+03
 1.591010132E+03
 1.703153809E+03
 1.646021606E+03
 1.543935791E+03
 1.089907837E+03
 9.982700806E+02
 1.230489624E+03
 1.359831177E+03
 1.376134521E+03
 1.371154053E+03
 1.305107178E+03
 1.293123535E+03
 1.346654785E+03
 1.350275879E+03
 1.345798584E+03
 1.343436646E+03
 1.342616211E+03
 1.336101074E+03
 9.493901978E+02
 6.402266235E+02
 1.732201660E+03
 1.862655273E+03
 1.490112305E+03
 1.567284180E+03
 1.841670532E+03
 1.943979248E+03
 1.960422607E+03
 1.965255737E+03
 1.847715210E+03
 1.530174072E+03
 1.402832642E+03
 1.653217529E+03
 1.641492798E+03
 1.723900391E+03
 1.657914917E+03
 1.766659546E+03
 1.573639893E+03
 1.248371216E+03
 1.393189941E+03
 1.387604858E+03
 1.385981323E+03
 1.386543579E+03
 1.332959473E+03
 1.277008057E+03
 1.336284790E+03
 1.364708008E+03
 1.364105713E+03
 1.362587769E+03
 1.360378418E+03
 1.350883911E+03
 9.482838135E+02
 6.630635376E+02
 1.027579468E+03
 1.603591064E+03
 1.674769775E+03
 1.860076416E+03
 1.922611572E+03
 1.849959961E+03
 1.925705566E+03
 1.855410278E+03
 1.822514893E+03
 1.676027466E+03
 1.408673462E+03
 1.557816528E+03
 1.676370605E+03
 1.743517578E+03
 1.816959961E+03
 1.994672607E+03
 2.064211426E+03
 1.345595703E+03
 1.335095459E+03
 1.414452759E+03
 1.407406860E+03
 1.407563354E+03
 1.385403809E+03
 1.320941040E+03
 1.335984863E+03
 1.377335815E+03
 1.383745850E+03
 1.382879761E+03
 1.374935547E+03
 1.346421387E+03
 8.193137207E+02
 6.561862183E+02
 1.372482422E+03
 1.883424438E+03
 2.089014648E+03
 1.781674927E+03
 1.782043091E+03
 1.812645264E+03
 1.803177002E+03
 1.801576050E+03
 1.869608032E+03
 1.881865845E+03
 1.814765747E+03
 1.702892944E+03
 1.809359497E+03
 1.895659790E+03
 2.110745850E+03
 2.124816650E+03
 2.081278564E+03
 1.443277832E+03
 1.139917847E+03
 1.377325317E+03
 1.447530396E+03
 1.443916748E+03
 1.431115112E+03
 1.394346802E+03
 1.369912964E+03
 1.384755371E+03
 1.392020996E+03
 1.392289062E+03
 1.380640259E+03
 1.309010986E+03
 7.270353394E+02
 6.195179443E+02
 1.965375244E+03
 2.037011719E+03
 1.932261597E+03
 1.703738037E+03
 1.795758911E+03
 1.821015137E+03
 1.788811157E+03
 1.812808350E+03
 1.864263916E+03
 1.929494995E+03
 2.039310547E+03
 2.107977295E+03
 2.041695679E+03
 2.073720215E+03
 2.082445068E+03
 1.806088379E+03
 1.585952881E+03
 1.394241211E+03
 1.024876831E+03
 1.152224976E+03
 1.436404541E+03
 1.490756226E+03
 1.474456299E+03
 1.430602661E+03
 1.390964966E+03
 1.380750244E+03
 1.380417847E+03
 1.384141113E+03
 1.378784180E+03
 1.276948975E+03
 8.231168823E+02
 8.074870605E+02
 1.827146484E+03
 1.950554077E+03
 1.811255249E+03
 1.747749756E+03
 1.854194092E+03
 1.883875732E+03
 1.834004883E+03
 1.815536377E+03
 1.697144531E+03
 1.703209351E+03
 2.006628296E+03
 1.701000000E+03
 1.267186279E+03
 1.336785522E+03
 1.291048828E+03
 1.049723267E+03
 8.899765015E+02
 8.621070557E+02
 8.615008545E+02
 8.586382446E+02
 1.302543823E+03
 1.503908081E+03
 1.509952637E+03
 1.452455200E+03
 1.393352051E+03
 1.363629761E+03
 1.353753540E+03
 1.366901978E+03
 1.377017700E+03
 1.320887085E+03
 1.158082275E+03
 1.203035278E+03
 1.952053955E+03
 1.866734253E+03
 1.986068604E+03
 1.846053467E+03
 1.867735962E+03
 1.878401489E+03
 1.853155151E+03
 1.798004150E+03
 1.615859985E+03
 1.762205688E+03
 1.609698853E+03
 9.607147827E+02
 8.019675903E+02
 8.210118408E+02
 7.937921143E+02
 7.507897949E+02
 7.352018433E+02
 7.349082642E+02
 7.394170532E+02
 7.626544189E+02
 1.130425415E+03
 1.441959595E+03
 1.517770996E+03
 1.478856812E+03
 1.412430908E+03
 1.375663818E+03
 1.358060059E+03
 1.365564087E+03
 1.382239502E+03
 1.371832886E+03
 1.351655762E+03
 1.346201416E+03
 1.780046997E+03
 1.845154175E+03
 1.963759888E+03
 2.000065063E+03
 1.971900391E+03
 1.957685059E+03
 1.916945068E+03
 1.848427124E+03
 1.710097900E+03
 1.489557861E+03
 9.281246948E+02
 7.839465942E+02
 7.612113647E+02
 7.640853271E+02
 7.740928345E+02
 7.689233398E+02
 7.561958008E+02
 7.227166138E+02
 7.121915283E+02
 7.285521851E+02
 9.271685791E+02
 1.315508179E+03
 1.499772705E+03
 1.493960815E+03
 1.450045166E+03
 1.425930176E+03
 1.409727295E+03
 1.402267822E+03
 1.395413818E+03
 1.378796875E+03
 1.364450073E+03
 1.354528198E+03
 1.230738525E+03
 1.838601685E+03
 1.783020264E+03
 2.064527588E+03
 2.184386230E+03
 2.159385010E+03
 1.964851807E+03
 1.857130493E+03
 1.736418091E+03
 9.700579834E+02
 7.950484619E+02
 7.712216187E+02
 7.706622314E+02
 7.766425781E+02
 7.877127075E+02
 7.982886963E+02
 7.929035034E+02
 7.166428833E+02
 6.960446777E+02
 8.419624634E+02
 1.195942505E+03
 1.417104004E+03
 1.504751831E+03
 1.484698364E+03
 1.453018799E+03
 1.437731445E+03
 1.429913940E+03
 1.413283203E+03
 1.390352905E+03
 1.371281982E+03
 1.358881226E+03
 1.350213501E+03
 8.199701538E+02
 1.664264160E+03
 1.600439575E+03
 1.640116577E+03
 1.763788452E+03
 1.823004517E+03
 1.763072144E+03
 1.448331299E+03
 1.376154053E+03
 1.006987061E+03
 8.546314697E+02
 7.589826660E+02
 7.392167358E+02
 7.390912476E+02
 7.387846069E+02
 7.313675537E+02
 7.306325073E+02
 7.430377808E+02
 7.341573486E+02
 7.686745605E+02
 1.121135986E+03
 1.389730469E+03
 1.389195801E+03
 1.280410522E+03
 1.194951782E+03
 1.208667358E+03
 1.290342041E+03
 1.341894287E+03
 1.358200439E+03
 1.357943481E+03
 1.352182251E+03
 1.345937134E+03
 1.531490479E+03
 1.973191040E+03
 1.862709839E+03
 1.787900879E+03
 1.479630005E+03
 1.323712891E+03
 1.273866089E+03
 1.180577759E+03
 1.051981689E+03
 8.817802734E+02
 8.053316650E+02
 7.834685669E+02
 7.712885132E+02
 7.649694214E+02
 7.600039673E+02
 7.580868530E+02
 7.645166016E+02
 7.705132446E+02
 7.621655273E+02
 7.606046753E+02
 7.500399780E+02
 1.061050903E+03
 1.422927490E+03
 1.473549194E+03
 1.452432007E+03
 1.380617676E+03
 1.305305054E+03
 1.263090454E+03
 1.243254395E+03
 1.241631714E+03
 1.250983398E+03
 1.261085327E+03
 1.784242432E+03
 1.605669800E+03
 1.592233276E+03
 1.632477051E+03
 1.682751099E+03
 2.005295898E+03
 1.994670166E+03
 1.925326782E+03
 1.821104980E+03
 1.539788818E+03
 1.353906616E+03
 1.162314453E+03
 9.740852051E+02
 9.021544800E+02
 8.395793457E+02
 7.743103638E+02
 7.616533203E+02
 7.527612305E+02
 7.500628662E+02
 8.280254517E+02
 1.290786621E+03
 1.442029541E+03
 1.419666870E+03
 1.396966309E+03
 1.380841309E+03
 1.374123779E+03
 1.373168701E+03
 1.366599609E+03
 1.356668213E+03
 1.348578613E+03
 1.341961792E+03
 1.334977173E+03
 1.839001953E+03
 1.654692383E+03
 1.665495117E+03
 1.777565796E+03
 1.731574585E+03
 1.728066895E+03
 1.796703857E+03
 1.711608032E+03
 1.725228638E+03
 1.860853516E+03
 2.015647217E+03
 1.846799438E+03
 1.625832886E+03
 1.458193726E+03
 1.278622559E+03
 8.703040161E+02
 7.662471313E+02
 7.533215942E+02
 7.646392212E+02
 1.085179199E+03
 1.345728394E+03
 1.364740234E+03
 1.356697021E+03
 1.349086304E+03
 1.342462036E+03
 1.335865845E+03
 1.328252563E+03
 1.318327393E+03
 1.304858032E+03
 1.263133179E+03
 1.139844482E+03
 1.169434692E+03
 1.755541992E+03
 1.727354980E+03
 1.747818359E+03
 1.803293091E+03
 1.787965942E+03
 1.719412720E+03
 1.720573730E+03
 1.682584717E+03
 1.662505005E+03
 1.720330933E+03
 1.827056274E+03
 1.773114624E+03
 1.612310791E+03
 1.566120117E+03
 1.544777588E+03
 1.315878540E+03
 8.575487061E+02
 7.673153687E+02
 7.385899658E+02
 1.049298340E+03
 1.335777344E+03
 1.347266235E+03
 1.337393677E+03
 1.329873291E+03
 1.323067383E+03
 1.315714844E+03
 1.307312500E+03
 1.296815796E+03
 1.271077759E+03
 9.161673584E+02
 6.170408936E+02
 6.838250122E+02
 1.378457153E+03
 1.804371460E+03
 1.850583496E+03
 1.770193848E+03
 1.741696167E+03
 1.717186523E+03
 1.692246460E+03
 1.701385864E+03
 1.586028198E+03
 1.551422119E+03
 1.401036865E+03
 1.492194336E+03
 1.545065552E+03
 1.542497314E+03
 1.548922607E+03
 1.434917725E+03
 1.018126343E+03
 8.245633545E+02
 8.049439087E+02
 1.241961548E+03
 1.331372437E+03
 1.325248291E+03
 1.322440674E+03
 1.319499512E+03
 1.315377686E+03
 1.310579102E+03
 1.304906006E+03
 1.297010254E+03
 1.276713257E+03
 9.521082153E+02
 5.992772217E+02
 7.525195923E+02
 8.685646362E+02
 2.024826416E+03
 1.949490601E+03
 1.876207275E+03
 1.706270996E+03
 1.676643433E+03
 1.739722900E+03
 1.481599365E+03
 1.329824585E+03
 1.318681274E+03
 1.412696167E+03
 1.618316528E+03
 1.624691772E+03
 1.629556396E+03
 1.509713135E+03
 1.112129150E+03
 8.719161377E+02
 8.627683105E+02
 1.086969360E+03
 1.299526367E+03
 1.325550781E+03
 1.324688843E+03
 1.325198975E+03
 1.324423340E+03
 1.322504150E+03
 1.320240845E+03
 1.317470703E+03
 1.312840942E+03
 1.300754639E+03
 1.106916992E+03
 6.975169067E+02
 8.597416992E+02
 4.439761658E+02
 1.464543823E+03
 1.690653931E+03
 1.669894409E+03
 1.820841919E+03
 1.800095581E+03
 1.597879883E+03
 1.348060303E+03
 1.319464478E+03
 1.346752563E+03
 1.343903442E+03
 1.560325195E+03
 1.774265015E+03
 1.768958374E+03
 1.591795410E+03
 1.101247925E+03
 1.063418579E+03
 1.262470337E+03
 1.332551880E+03
 1.330450928E+03
 1.331246338E+03
 1.334547363E+03
 1.337720459E+03
 1.339478882E+03
 1.340346558E+03
 1.340623047E+03
 1.339219727E+03
 1.334211060E+03
 1.320990356E+03
 1.138564575E+03
 7.297720947E+02
 9.701749878E+02
 3.969689026E+02
 9.997018433E+02
 1.497786621E+03
 1.370787354E+03
 1.598959961E+03
 1.591519775E+03
 1.494714844E+03
 1.378821411E+03
 1.349358032E+03
 1.385969238E+03
 1.388698975E+03
 1.460086548E+03
 1.803424805E+03
 1.849526245E+03
 1.854615967E+03
 1.371409180E+03
 1.345185303E+03
 1.367868286E+03
 1.348341187E+03
 1.345653442E+03
 1.349152466E+03
 1.354601807E+03
 1.359644531E+03
 1.363305786E+03
 1.366090820E+03
 1.367862061E+03
 1.364524658E+03
 1.353975708E+03
 1.335658691E+03
 1.121176270E+03
 7.117106934E+02
 9.939763184E+02
 4.276991272E+02
 7.523942261E+02
 1.555514038E+03
 1.601835815E+03
 1.915042969E+03
 1.893163696E+03
 1.848684937E+03
 1.727961914E+03
 1.479312866E+03
 1.415327881E+03
 1.343156616E+03
 1.505128296E+03
 1.789591919E+03
 1.816578003E+03
 2.002923950E+03
 1.625433105E+03
 1.269106079E+03
 1.382457153E+03
 1.385194702E+03
 1.373181396E+03
 1.374571655E+03
 1.380822632E+03
 1.387069824E+03
 1.391628418E+03
 1.394340942E+03
 1.396570312E+03
 1.389643433E+03
 1.368653198E+03
 1.326042236E+03
 9.162802124E+02
 7.178026123E+02
 9.212569580E+02
 5.009204712E+02
 5.949489136E+02
 1.725136108E+03
 1.817549194E+03
 1.676629761E+03
 1.751064087E+03
 1.761416138E+03
 1.847317383E+03
 1.880555420E+03
 1.675299683E+03
 1.305189331E+03
 1.533845825E+03
 1.751696533E+03
 1.758432983E+03
 1.950410767E+03
 2.157885986E+03
 1.545147095E+03
 1.240351929E+03
 1.395201660E+03
 1.410593628E+03
 1.404690674E+03
 1.411136963E+03
 1.418557861E+03
 1.423350952E+03
 1.423129150E+03
 1.420695190E+03
 1.409644531E+03
 1.376274414E+03
 1.190293213E+03
 6.665506592E+02
 7.550675659E+02
 7.824487305E+02
 7.266909180E+02
 1.325647339E+03
 1.962210449E+03
 1.806578735E+03
 1.682087769E+03
 1.759504150E+03
 1.761545654E+03
 1.738439697E+03
 1.732142334E+03
 1.913235229E+03
 1.843241943E+03
 1.488854492E+03
 1.724968872E+03
 1.730376953E+03
 1.924074463E+03
 2.264632324E+03
 1.887680420E+03
 1.311679199E+03
 1.194318848E+03
 1.403823364E+03
 1.432214111E+03
 1.440181030E+03
 1.449898071E+03
 1.453650024E+03
 1.447270996E+03
 1.434542358E+03
 1.417286255E+03
 1.373151855E+03
 9.914542236E+02
 6.039338989E+02
 7.449500122E+02
 6.910704346E+02
 1.557325439E+03
 2.062121338E+03
 2.076653564E+03
 1.798630249E+03
 1.814874390E+03
 1.852898926E+03
 1.853332153E+03
 1.777666504E+03
 1.652903687E+03
 2.082815918E+03
 2.179930176E+03
 1.961310303E+03
 1.775781372E+03
 1.724740234E+03
 2.089160156E+03
 1.860112915E+03
 1.047715942E+03
 9.180967407E+02
 9.067271118E+02
 1.109476562E+03
 1.374808838E+03
 1.450878906E+03
 1.463908081E+03
 1.464520142E+03
 1.453434204E+03
 1.436646240E+03
 1.417112793E+03
 1.372895142E+03
 1.104568848E+03
 5.697057495E+02
 6.441655273E+02
 6.492304688E+02
 2.138908691E+03
 2.125742432E+03
 2.103766846E+03
 1.868359619E+03
 1.848041748E+03
 1.868048828E+03
 1.875064453E+03
 1.784083130E+03
 1.720623047E+03
 1.949021851E+03
 1.734051880E+03
 1.785688843E+03
 1.978624023E+03
 2.077850342E+03
 1.937793579E+03
 9.945037842E+02
 7.478540649E+02
 7.253021851E+02
 7.384263306E+02
 8.976386719E+02
 1.257642578E+03
 1.449308838E+03
 1.466878418E+03
 1.460253662E+03
 1.448415161E+03
 1.430563232E+03
 1.413122681E+03
 1.377480835E+03
 1.285530884E+03
 9.811577759E+02
 9.234592285E+02
 9.998652954E+02
 2.024522217E+03
 1.900374023E+03
 2.097252686E+03
 1.979407959E+03
 1.877725708E+03
 1.887322144E+03
 1.960897339E+03
 1.782917969E+03
 2.001536011E+03
 1.857291504E+03
 1.148720947E+03
 1.037192017E+03
 1.268433105E+03
 1.651856812E+03
 1.329891113E+03
 8.377264404E+02
 7.375466309E+02
 7.027811890E+02
 7.800227051E+02
 1.269516724E+03
 1.423214233E+03
 1.445703857E+03
 1.441867798E+03
 1.428078125E+03
 1.415993652E+03
 1.404483643E+03
 1.390354736E+03
 1.363920654E+03
 1.338754883E+03
 1.302326782E+03
 1.251859009E+03
 1.273458496E+03
 1.475784790E+03
 1.764966675E+03
 1.839135498E+03
 2.078516357E+03
 2.007249512E+03
 1.987939941E+03
 1.904177490E+03
 1.822922607E+03
 1.776600464E+03
 1.642400391E+03
 1.364750977E+03
 9.537197876E+02
 7.984941406E+02
 8.259059448E+02
 8.978020020E+02
 8.369736328E+02
 7.750579834E+02
 7.214414673E+02
 7.028389893E+02
 8.763508301E+02
 1.359991821E+03
 1.477978149E+03
 1.459154175E+03
 1.433732056E+03
 1.413553467E+03
 1.402264160E+03
 1.396873535E+03
 1.378494995E+03
 1.358723755E+03
 1.345341919E+03
 1.335769165E+03
 1.330566162E+03
 1.052953857E+03
 1.593531128E+03
 1.528338989E+03
 1.679612305E+03
 1.794662720E+03
 1.847580566E+03
 1.818653320E+03
 1.741001465E+03
 1.730960815E+03
 1.574131226E+03
 1.428998169E+03
 1.088159424E+03
 8.019152832E+02
 7.540546875E+02
 7.716693115E+02
 7.861226196E+02
 7.898856201E+02
 7.639299316E+02
 7.228917236E+02
 7.379107056E+02
 1.136588379E+03
 1.452097290E+03
 1.457925537E+03
 1.272081177E+03
 1.112136719E+03
 1.182402954E+03
 1.325295044E+03
 1.362678223E+03
 1.359497314E+03
 1.350850220E+03
 1.342908447E+03
 1.336307617E+03
 1.927359741E+03
 1.874422729E+03
 1.759150024E+03
 1.744332886E+03
 1.758874634E+03
 1.910268677E+03
 1.952592285E+03
 1.871248413E+03
 1.614392822E+03
 1.352598999E+03
 9.372169800E+02
 9.069232788E+02
 8.893783569E+02
 8.526533813E+02
 9.139660645E+02
 9.515503540E+02
 9.061284790E+02
 8.543173828E+02
 7.995765381E+02
 7.776007080E+02
 7.544569702E+02
 1.085033325E+03
 1.449403931E+03
 1.533136475E+03
 1.513407104E+03
 1.426981934E+03
 1.341454956E+03
 1.268009521E+03
 1.199391602E+03
 1.162661499E+03
 1.157831543E+03
 1.168867676E+03
 1.701587402E+03
 1.650643799E+03
 1.689729126E+03
 1.731712402E+03
 1.676643188E+03
 1.874915771E+03
 1.973831177E+03
 1.908206177E+03
 2.025332397E+03
 1.751274414E+03
 1.670646851E+03
 1.677139526E+03
 1.445589600E+03
 1.118272583E+03
 9.101805420E+02
 7.988893433E+02
 7.673565674E+02
 7.552766724E+02
 7.519810181E+02
 7.601536865E+02
 1.030333862E+03
 1.436371216E+03
 1.488314453E+03
 1.462163208E+03
 1.440845825E+03
 1.420212646E+03
 1.397157104E+03
 1.370863159E+03
 1.352785278E+03
 1.345133423E+03
 1.337694214E+03
 1.328648071E+03
 1.697955200E+03
 1.532998535E+03
 1.660206299E+03
 1.761993042E+03
 1.691769531E+03
 1.736077515E+03
 1.694431641E+03
 1.698165283E+03
 1.824933350E+03
 1.930211914E+03
 1.829628906E+03
 1.639311279E+03
 1.632469360E+03
 1.708816772E+03
 1.854583618E+03
 1.383641479E+03
 8.620347290E+02
 7.583989258E+02
 9.356449585E+02
 1.325957275E+03
 1.426675903E+03
 1.410536743E+03
 1.392698975E+03
 1.384830078E+03
 1.379613525E+03
 1.372419312E+03
 1.356126953E+03
 1.336921753E+03
 1.307657227E+03
 1.048004639E+03
 6.982000732E+02
 6.938217773E+02
 1.153513794E+03
 1.506378784E+03