TITLE     = "fluent19.2.0  build-id: 10236"
VARIABLES = "Temperature"
DATASETAUXDATA Common.DensityVar="55"
DATASETAUXDATA Common.PressureVar="4"
DATASETAUXDATA Common.TemperatureVar="19"
DATASETAUXDATA Common.TurbulentDynamicViscosityVar="59"
DATASETAUXDATA Common.UVar="7"
DATASETAUXDATA Common.VectorVarsAreVelocity="TRUE"
DATASETAUXDATA Common.ViscosityVar="58"
DATASETAUXDATA Common.VVar="10"
DATASETAUXDATA Common.WVar="13"
ZONE T="Rectangular zone"
 STRANDID=0, SOLUTIONTIME=0.00275
 I=32, J=16, K=16, ZONETYPE=Ordered
 DATAPACKING=POINT
 DT=(SINGLE )
 8.053391724E+02
 1.688291382E+03
 1.717136230E+03
 1.547243774E+03
 1.265072021E+03
 1.123131836E+03
 1.055675049E+03
 8.572807007E+02
 7.731506958E+02
 7.603168335E+02
 7.580401611E+02
 7.576457520E+02
 7.577145386E+02
 7.586986694E+02
 7.584990234E+02
 7.583930664E+02
 7.561673584E+02
 7.525144043E+02
 7.408857422E+02
 7.114204712E+02
 7.091259766E+02
 9.226568604E+02
 1.210964600E+03
 1.195782837E+03
 1.135087158E+03
 1.151078491E+03
 1.142338989E+03
 1.104771851E+03
 1.123516968E+03
 1.192526978E+03
 1.249827148E+03
 1.275642090E+03
 1.170922974E+03
 1.772219604E+03
 1.735445679E+03
 1.687250366E+03
 1.633835815E+03
 1.633852783E+03
 1.612211182E+03
 1.455501831E+03
 1.313447266E+03
 1.139550293E+03
 9.387529907E+02
 8.471078491E+02
 7.695178223E+02
 7.491245117E+02
 7.450504761E+02
 7.440050049E+02
 7.383618774E+02
 7.328276978E+02
 7.301200562E+02
 7.093257446E+02
 7.083551636E+02
 9.541206055E+02
 1.236282471E+03
 1.220003174E+03
 1.182303101E+03
 1.094677490E+03
 1.063919800E+03
 1.142656494E+03
 1.239347290E+03
 1.285638672E+03
 1.309585205E+03
 1.315920288E+03
 1.723385986E+03
 1.815790283E+03
 1.740863525E+03
 1.759997192E+03
 1.803877563E+03
 1.880864990E+03
 1.903984863E+03
 1.823349609E+03
 1.850850342E+03
 1.707585083E+03
 1.647476685E+03
 1.464032104E+03
 9.263147583E+02
 7.887671509E+02
 7.675048828E+02
 7.789785156E+02
 7.784423218E+02
 7.496737671E+02
 7.366448975E+02
 7.258101807E+02
 7.682565918E+02
 1.098078369E+03
 1.298772949E+03
 1.286673950E+03
 1.145921997E+03
 1.027569946E+03
 1.131853271E+03
 1.269895142E+03
 1.319455200E+03
 1.322196533E+03
 1.319429443E+03
 1.316763062E+03
 2.043991821E+03
 2.021401855E+03
 1.975251587E+03
 1.926555420E+03
 1.908927246E+03
 2.078179688E+03
 2.141611328E+03
 1.960152344E+03
 1.897213745E+03
 1.797944702E+03
 1.906466797E+03
 1.836406860E+03
 1.161875488E+03
 9.485603638E+02
 9.080205078E+02
 9.636926880E+02
 8.994011230E+02
 7.916765747E+02
 7.555005493E+02
 7.365995483E+02
 8.561094971E+02
 1.275697998E+03
 1.294525879E+03
 1.298611084E+03
 1.114656006E+03
 1.067405640E+03
 1.251309692E+03
 1.318919312E+03
 1.328172852E+03
 1.324546509E+03
 1.320037720E+03
 1.316364502E+03
 2.228677734E+03
 2.209220459E+03
 2.217084473E+03
 1.996333862E+03
 1.839293823E+03
 1.924198242E+03
 2.058240723E+03
 2.157766113E+03
 1.962811157E+03
 1.939863037E+03
 1.833601807E+03
 1.674075439E+03
 1.416189819E+03
 1.340296265E+03
 1.310741455E+03
 1.341443359E+03
 1.018954224E+03
 8.120862427E+02
 7.648093872E+02
 7.537632446E+02
 9.644641113E+02
 1.306916138E+03
 1.279905762E+03
 1.301127930E+03
 1.097585205E+03
 1.073141479E+03
 1.274633057E+03
 1.327164062E+03
 1.330095947E+03
 1.325536377E+03
 1.322037231E+03
 1.317392090E+03
 2.228579346E+03
 2.218035400E+03
 1.933135254E+03
 1.976882080E+03
 1.873021240E+03
 1.831317871E+03
 1.858488037E+03
 1.957926514E+03
 1.958642822E+03
 1.978340210E+03
 1.577881958E+03
 1.518507202E+03
 1.541080811E+03
 1.555557861E+03
 1.515946655E+03
 1.404645386E+03
 9.576893311E+02
 8.121215820E+02
 7.997686768E+02
 8.705859985E+02
 1.167300537E+03
 1.374406860E+03
 1.296874878E+03
 1.319612061E+03
 1.107198364E+03
 1.047818481E+03
 1.270604492E+03
 1.331684937E+03
 1.333704956E+03
 1.329923096E+03
 1.328595703E+03
 1.313328003E+03
 2.211792725E+03
 2.050776367E+03
 1.581824341E+03
 1.688581299E+03
 2.001957764E+03
 1.859857178E+03
 1.841905762E+03
 1.846512329E+03
 1.878929077E+03
 1.942410767E+03
 1.800895020E+03
 1.779256470E+03
 1.674836060E+03
 1.632174927E+03
 1.529031006E+03
 1.392536987E+03
 1.010294312E+03
 8.837401123E+02
 9.431102295E+02
 1.221059814E+03
 1.359448608E+03
 1.423961182E+03
 1.324011230E+03
 1.330290649E+03
 1.142736450E+03
 9.996105957E+02
 1.213682129E+03
 1.327979492E+03
 1.337048828E+03
 1.335455688E+03
 1.336376709E+03
 1.306253784E+03
 2.093041748E+03
 1.844911743E+03
 1.513168213E+03
 1.620056641E+03
 2.012710571E+03
 1.864862305E+03
 1.839609741E+03
 1.885226318E+03
 2.008435059E+03
 2.035814087E+03
 2.070042480E+03
 1.954601562E+03
 1.658942749E+03
 1.623797119E+03
 1.600279053E+03
 1.574665405E+03
 1.435055542E+03
 1.157228149E+03
 1.127225952E+03
 1.340027710E+03
 1.434455200E+03
 1.454138184E+03
 1.362512817E+03
 1.306720703E+03
 1.166842041E+03
 9.710058594E+02
 1.120872681E+03
 1.313203735E+03
 1.339532349E+03
 1.340812866E+03
 1.342378052E+03
 1.321876953E+03
 1.613005859E+03
 1.819864258E+03
 1.711483887E+03
 1.858735107E+03
 1.958903564E+03
 1.840848511E+03
 1.826409424E+03
 1.903637329E+03
 2.154019043E+03
 1.934679688E+03
 1.971027588E+03
 1.899095825E+03
 1.710698120E+03
 1.795148560E+03
 1.871378540E+03
 1.802337158E+03
 1.819673218E+03
 1.631472290E+03
 1.468880127E+03
 1.241739014E+03
 1.368283936E+03
 1.454291260E+03
 1.428756470E+03
 1.300789429E+03
 1.197847778E+03
 9.909920044E+02
 1.029381714E+03
 1.269008057E+03
 1.333622559E+03
 1.341591919E+03
 1.340478149E+03
 1.322612671E+03
 1.662083862E+03
 1.955067627E+03
 2.019350830E+03
 1.847227173E+03
 1.824561523E+03
 1.807116333E+03
 1.825850830E+03
 1.830022217E+03
 1.888798706E+03
 1.839277344E+03
 1.976623413E+03
 1.969165649E+03
 1.925421265E+03
 1.943196655E+03
 1.813690552E+03
 1.648761719E+03
 1.595948608E+03
 1.748740601E+03
 1.816186646E+03
 1.287955078E+03
 1.144760254E+03
 1.382858154E+03
 1.471751831E+03
 1.360618774E+03
 1.206533813E+03
 1.013256409E+03
 9.861459351E+02
 1.209058472E+03
 1.308413330E+03
 1.329020752E+03
 1.328454712E+03
 1.315438599E+03
 2.029128906E+03
 2.012383057E+03
 2.041724731E+03
 1.760362061E+03
 1.772514526E+03
 1.809610596E+03
 1.844252930E+03
 1.794001831E+03
 1.798605225E+03
 1.971103882E+03
 2.117886963E+03
 1.947459473E+03
 1.665499512E+03
 1.390560547E+03
 1.093520508E+03
 1.034981201E+03
 1.067014893E+03
 1.281247070E+03
 1.495901001E+03
 1.269043091E+03
 9.325355225E+02
 1.191673340E+03
 1.447335083E+03
 1.428433594E+03
 1.230231201E+03
 1.040059692E+03
 1.014076050E+03
 1.169191772E+03
 1.262741577E+03
 1.291998291E+03
 1.298606201E+03
 1.292162964E+03
 1.862507568E+03
 1.858281494E+03
 1.775206055E+03
 1.694589233E+03
 1.752723145E+03
 1.830833984E+03
 1.836231323E+03
 1.760370117E+03
 1.867630737E+03
 2.178679199E+03
 2.133841553E+03
 1.909510132E+03
 1.245622437E+03
 9.233515625E+02
 7.981247559E+02
 7.591605835E+02
 7.532216797E+02
 7.819215088E+02
 9.070928955E+02
 9.775328979E+02
 8.025156860E+02
 9.976859741E+02
 1.375197510E+03
 1.459771484E+03
 1.289552368E+03
 1.123780396E+03
 1.091852417E+03
 1.160479126E+03
 1.212415771E+03
 1.236404297E+03
 1.247693726E+03
 1.246313232E+03
 1.356342773E+03
 1.817092041E+03
 1.810114746E+03
 1.760468018E+03
 1.773037476E+03
 1.814245605E+03
 1.816274292E+03
 1.951590820E+03
 2.050079102E+03
 2.141275391E+03
 1.892189575E+03
 1.382141602E+03
 9.619106445E+02
 8.034673462E+02
 7.537250366E+02
 7.400347900E+02
 7.368665161E+02
 7.462579956E+02
 7.556701660E+02
 7.656794434E+02
 7.415136719E+02
 1.002671509E+03
 1.381763916E+03
 1.457699829E+03
 1.320445923E+03
 1.197474243E+03
 1.152348022E+03
 1.159050781E+03
 1.180584351E+03
 1.205481689E+03
 1.225665894E+03
 1.234371948E+03
 1.011704102E+03
 1.770089966E+03
 1.763749146E+03
 1.729860229E+03
 1.756500244E+03
 1.758943359E+03
 1.726434448E+03
 1.829359253E+03
 1.870391968E+03
 1.854069580E+03
 1.316874146E+03
 8.746682129E+02
 7.646599731E+02
 7.439799194E+02
 7.386112061E+02
 7.365095215E+02
 7.381177368E+02
 7.464256592E+02
 7.354957275E+02
 7.266639404E+02
 7.590661011E+02
 1.027609619E+03
 1.372731934E+03
 1.417593506E+03
 1.295842529E+03
 1.203240967E+03
 1.165366821E+03
 1.168620239E+03
 1.197990967E+03
 1.234261230E+03
 1.260495117E+03
 1.273081543E+03
 8.642542114E+02
 1.716408447E+03
 1.634325684E+03
 1.605512817E+03
 1.683547607E+03
 1.741096069E+03
 1.737933838E+03
 1.592683472E+03
 1.439722412E+03
 1.196260864E+03
 8.310846558E+02
 7.615457153E+02
 7.504453125E+02
 7.488925781E+02
 7.497950439E+02
 7.519019775E+02
 7.644208984E+02
 7.899284058E+02
 7.716984253E+02
 7.360354614E+02
 8.190687256E+02
 1.080496338E+03
 1.301100952E+03
 1.284006348E+03
 1.191316650E+03
 1.147459229E+03
 1.152836060E+03
 1.195025146E+03
 1.247729614E+03
 1.287236938E+03
 1.306802124E+03
 1.314058105E+03
 7.684193115E+02
 1.599333862E+03
 1.691269287E+03
 1.573357300E+03
 1.626489746E+03
 1.731210449E+03
 1.803934204E+03
 1.529792358E+03
 9.766216431E+02
 7.835971069E+02
 7.611970825E+02
 7.529679565E+02
 7.496330566E+02
 7.493164062E+02
 7.505742188E+02
 7.531975708E+02
 7.615059814E+02
 7.840660400E+02
 8.093956299E+02
 7.688127441E+02
 8.370504761E+02
 1.082887207E+03
 1.202927734E+03
 1.159615356E+03
 1.120815674E+03
 1.116594116E+03
 1.150934326E+03
 1.218945557E+03
 1.276040894E+03
 1.308717529E+03
 1.321891724E+03
 1.326402344E+03
 1.116387695E+03
 1.887141724E+03
 1.828033569E+03
 1.787030762E+03
 1.609308594E+03
 1.265824707E+03
 1.008490479E+03
 8.641118164E+02
 8.084135742E+02
 7.947425537E+02
 7.796329346E+02
 7.692709961E+02
 7.645242310E+02
 7.618318481E+02
 7.608767090E+02
 7.609475098E+02
 7.618996582E+02
 7.682561035E+02
 7.603466187E+02
 7.362009277E+02
 7.349905396E+02
 9.500988159E+02
 1.327096436E+03
 1.367113770E+03
 1.309608887E+03
 1.281422363E+03
 1.245290039E+03
 1.203236328E+03
 1.207247314E+03
 1.240484863E+03
 1.264512207E+03
 1.278281250E+03
 1.809039307E+03
 1.653189819E+03
 1.644427734E+03
 1.653920898E+03
 1.683703125E+03
 1.925937988E+03
 2.210382324E+03
 2.105791748E+03
 1.945090576E+03
 1.883862061E+03
 1.216485840E+03
 8.793895874E+02
 7.697216797E+02
 7.522836304E+02
 7.536336670E+02
 7.562874146E+02
 7.634990234E+02
 7.606497192E+02
 7.482490845E+02
 7.420134888E+02
 1.010863037E+03
 1.348666382E+03
 1.378818115E+03
 1.338978149E+03
 1.292392578E+03
 1.284114380E+03
 1.298732544E+03
 1.324097656E+03
 1.334322510E+03
 1.330836914E+03
 1.325595337E+03
 1.321072754E+03
 1.686459473E+03
 1.716244019E+03
 1.755000244E+03
 1.764652344E+03
 1.755827637E+03
 1.812569702E+03
 1.890476318E+03
 1.869895020E+03
 1.802228271E+03
 1.732322510E+03
 1.616777954E+03
 1.604917358E+03
 1.297759399E+03
 8.947957153E+02
 8.501425171E+02
 8.608585205E+02
 7.944418945E+02
 7.525543213E+02
 7.411779175E+02
 7.267581177E+02
 8.762778931E+02
 1.270479126E+03
 1.366307129E+03
 1.317559082E+03
 1.285749268E+03
 1.311706177E+03
 1.324388916E+03
 1.327497803E+03
 1.324026367E+03
 1.316187622E+03
 1.285066406E+03
 1.269980835E+03
 1.793618164E+03
 1.878034546E+03
 1.807787476E+03
 1.775833252E+03
 1.801803955E+03
 1.827464844E+03
 1.882112549E+03
 1.781676636E+03
 1.707728882E+03
 1.717282471E+03
 1.618531738E+03
 1.695650269E+03
 1.699138306E+03
 1.317822632E+03
 1.262119263E+03
 1.302784058E+03
 1.110197388E+03
 8.652595825E+02
 7.794713745E+02
 7.322583008E+02
 1.022452454E+03
 1.333550903E+03
 1.352493286E+03
 1.310365112E+03
 1.318343018E+03
 1.339580811E+03
 1.331113281E+03
 1.321209961E+03
 1.313339111E+03
 1.305042603E+03
 1.168336548E+03
 1.034969116E+03
 1.746948853E+03
 2.114841553E+03
 1.885488525E+03
 1.740852417E+03
 1.809997681E+03
 1.860725342E+03
 1.917590698E+03
 1.885389160E+03
 1.695234985E+03
 1.763203369E+03
 1.495063599E+03
 1.449844238E+03
 1.467267212E+03
 1.494909424E+03
 1.534477417E+03
 1.546214478E+03
 1.376570068E+03
 9.946810303E+02
 8.313180542E+02
 7.901890869E+02
 1.111474121E+03
 1.350399292E+03
 1.334740112E+03
 1.264334106E+03
 1.305650024E+03
 1.338892944E+03
 1.332512329E+03
 1.324478882E+03
 1.318113159E+03
 1.311293213E+03
 1.031580322E+03
 7.147120361E+02
 1.961935059E+03
 1.853407715E+03
 2.004752563E+03
 1.741414185E+03
 1.790956665E+03
 1.829512939E+03
 1.845319580E+03
 1.875865967E+03
 1.653737183E+03
 1.437366333E+03
 1.484514160E+03
 1.543584839E+03
 1.526562988E+03
 1.598324829E+03
 1.602666382E+03
 1.617559570E+03
 1.272022583E+03
 9.304175415E+02
 8.242728882E+02
 1.037703613E+03
 1.297944946E+03
 1.358690796E+03
 1.312933594E+03
 1.201340820E+03
 1.265328003E+03
 1.337631470E+03
 1.337661255E+03
 1.332203979E+03
 1.329536255E+03
 1.326014282E+03
 9.790495605E+02
 6.874540405E+02
 1.621782959E+03
 1.616267578E+03
 1.708468872E+03
 1.905683228E+03
 1.878396118E+03
 1.943097168E+03
 1.959110840E+03
 1.821875977E+03
 1.553722046E+03
 1.473068359E+03
 1.471013672E+03
 1.659620850E+03
 1.569039551E+03
 1.636746216E+03
 1.634530151E+03
 1.658316895E+03
 1.373277100E+03
 1.044375366E+03
 1.144486450E+03
 1.301058594E+03
 1.362344604E+03
 1.369629517E+03
 1.314866089E+03
 1.174895752E+03
 1.208372437E+03
 1.328390869E+03
 1.348870728E+03
 1.346423096E+03
 1.345701172E+03
 1.343966309E+03
 9.025179443E+02
 7.465740967E+02
 1.061658447E+03
 1.505542969E+03
 1.421909912E+03
 1.676100098E+03
 1.894186279E+03
 2.006426514E+03
 2.036708984E+03
 2.047888184E+03
 2.029111938E+03
 1.668594116E+03
 1.394002441E+03
 1.625609375E+03
 1.675278564E+03
 1.685836548E+03
 1.697060303E+03
 1.760041382E+03
 1.852663086E+03
 1.517532104E+03
 1.350519653E+03
 1.385323120E+03
 1.381236816E+03
 1.384389404E+03
 1.353260620E+03
 1.209516235E+03
 1.154638062E+03
 1.289358154E+03
 1.360263184E+03
 1.365073242E+03
 1.364299438E+03
 1.358760498E+03
 9.173534546E+02
 7.792355957E+02
 8.699909668E+02
 1.244324585E+03
 1.592064819E+03
 1.906370117E+03
 1.951920898E+03
 1.968199341E+03
 1.933774902E+03
 1.894825317E+03
 1.948632935E+03
 1.855958618E+03
 1.527743774E+03
 1.504363281E+03
 1.683036743E+03
 1.700565308E+03
 1.887215942E+03
 1.989895386E+03
 2.084559570E+03
 1.882385376E+03
 1.316353149E+03
 1.375718750E+03
 1.409473755E+03
 1.407569702E+03
 1.400969727E+03
 1.319751343E+03
 1.201679810E+03
 1.261913330E+03
 1.362781738E+03
 1.382747559E+03
 1.381552368E+03
 1.345216797E+03
 8.415418091E+02
 7.850112915E+02
 1.339661621E+03
 9.613033447E+02
 1.931281982E+03
 1.817002686E+03
 1.792908813E+03
 1.820829590E+03
 1.790212524E+03
 1.775939087E+03
 1.805115112E+03
 1.847390869E+03
 1.863132690E+03
 1.779278198E+03
 1.768037231E+03
 1.872927856E+03
 2.165054688E+03
 2.128857422E+03
 1.964119751E+03
 1.797549805E+03
 1.251700073E+03
 1.209326538E+03
 1.398973755E+03
 1.447195435E+03
 1.444154175E+03
 1.413741943E+03
 1.338124878E+03
 1.309938232E+03
 1.361102783E+03
 1.385119629E+03
 1.387657959E+03
 1.283371704E+03
 7.642632446E+02
 7.117540283E+02
 1.967231445E+03
 1.732192261E+03
 2.075798584E+03
 1.758452148E+03
 1.746624634E+03
 1.801241577E+03
 1.791331787E+03
 1.759757935E+03
 1.802229980E+03
 1.858949463E+03
 1.867783325E+03
 1.961654297E+03
 2.079958008E+03
 2.034656982E+03
 1.796103027E+03
 1.573624023E+03
 1.363421509E+03
 1.262204346E+03
 1.161415649E+03
 1.013486084E+03
 1.192266357E+03
 1.441919800E+03
 1.490959961E+03
 1.460198120E+03
 1.396904785E+03
 1.350971191E+03
 1.356211060E+03
 1.371288818E+03
 1.382759277E+03
 1.215082886E+03
 7.188944702E+02
 6.894415894E+02
 1.961529663E+03
 2.080000000E+03
 1.921950073E+03
 1.753388062E+03
 1.804708496E+03
 1.862689697E+03
 1.853920898E+03
 1.864118774E+03
 1.950632324E+03
 1.783161987E+03
 1.700624023E+03
 1.904769165E+03
 1.792830444E+03
 1.248095947E+03
 9.597949219E+02
 8.730193481E+02
 8.229187012E+02
 7.754613037E+02
 8.006643677E+02
 8.164334106E+02
 9.081889648E+02
 1.337096802E+03
 1.501833374E+03
 1.495405762E+03
 1.421914551E+03
 1.362860107E+03
 1.341437866E+03
 1.346645020E+03
 1.374910645E+03
 1.268884644E+03
 9.433173828E+02
 1.033482178E+03
 2.049261719E+03
 2.006859253E+03
 2.050641602E+03
 1.851951904E+03
 1.843560791E+03
 1.863000000E+03
 1.863330933E+03
 1.845061279E+03
 1.918375732E+03
 1.675008911E+03
 1.792434937E+03
 1.614487183E+03
 9.736607666E+02
 7.831661987E+02
 7.644520874E+02
 7.609765015E+02
 7.443270264E+02
 7.328802490E+02
 7.363724976E+02
 7.367152710E+02
 7.979675903E+02
 1.150709717E+03
 1.439107300E+03
 1.508587158E+03
 1.458975220E+03
 1.396961426E+03
 1.365714233E+03
 1.353435181E+03
 1.375803589E+03
 1.372286377E+03
 1.318956177E+03
 1.332878662E+03
 1.731048096E+03
 1.895828247E+03
 1.973799805E+03
 2.021639404E+03
 1.987320068E+03
 1.973751465E+03
 1.972715698E+03
 1.847029785E+03
 1.868963745E+03
 1.680046265E+03
 1.472564331E+03
 9.154930420E+02
 7.840830688E+02
 7.672973633E+02
 7.736467285E+02
 7.733041382E+02
 7.705649414E+02
 7.431025391E+02
 7.178207397E+02
 7.155455322E+02
 7.592579346E+02
 9.943966064E+02
 1.355849731E+03
 1.497337769E+03
 1.478428223E+03
 1.444073120E+03
 1.425152954E+03
 1.410316650E+03
 1.402660034E+03
 1.388718872E+03
 1.370050049E+03
 1.360636108E+03
 1.263296387E+03
 1.727583984E+03
 1.864674561E+03
 2.039600342E+03
 2.156681885E+03
 2.144307861E+03
 2.119194092E+03
 1.892351685E+03
 1.889481445E+03
 1.613320068E+03
 9.536110229E+02
 7.948971558E+02
 7.722176514E+02
 7.749244995E+02
 7.828493652E+02
 7.871938477E+02
 7.996140747E+02
 7.605522461E+02
 7.028507080E+02
 7.154611206E+02
 1.013251160E+03
 1.308913574E+03
 1.453845459E+03
 1.493797729E+03
 1.460855713E+03
 1.435597046E+03
 1.428339478E+03
 1.422065308E+03
 1.401807007E+03
 1.379257446E+03
 1.363735229E+03
 1.354293091E+03
 7.821757812E+02
 1.697542358E+03
 1.683339844E+03
 1.563561401E+03
 1.622082153E+03
 1.694279663E+03
 1.754323364E+03
 1.775069458E+03
 1.495040894E+03
 1.440107300E+03
 1.131493896E+03
 9.208966064E+02
 7.834667969E+02
 7.425620728E+02
 7.391876221E+02
 7.370739746E+02
 7.304806519E+02
 7.302353516E+02
 7.389933472E+02
 7.268654785E+02
 8.114175415E+02
 1.205754639E+03
 1.404312988E+03
 1.355486572E+03
 1.232623901E+03
 1.146747314E+03
 1.178460571E+03
 1.283598511E+03
 1.340669678E+03
 1.356353516E+03
 1.355471558E+03
 1.349750854E+03
 1.797683716E+03
 1.904256104E+03
 1.829436157E+03
 1.805280884E+03
 1.793424683E+03
 1.679551270E+03
 1.222756958E+03
 1.178953613E+03
 1.160347778E+03
 1.164744385E+03
 1.003628601E+03
 8.447224121E+02
 7.988352661E+02
 7.805737305E+02
 7.698065186E+02
 7.625411987E+02
 7.600798950E+02
 7.708483887E+02
 7.747573853E+02
 7.642854004E+02
 7.616103516E+02
 8.338444214E+02
 1.231697754E+03
 1.445712402E+03
 1.456091919E+03
 1.418201660E+03
 1.344272583E+03
 1.288073242E+03
 1.270323730E+03
 1.266312256E+03
 1.265994141E+03
 1.269724365E+03
 1.669894409E+03
 1.581828491E+03
 1.594674683E+03
 1.649166138E+03
 1.641960083E+03
 1.728775146E+03
 2.105426514E+03
 2.089689209E+03
 1.927458862E+03
 1.782654785E+03
 1.548380981E+03
 1.401021973E+03
 1.205895142E+03
 9.783688354E+02
 8.605022583E+02
 8.278969116E+02
 7.779187012E+02
 7.614953003E+02
 7.531867065E+02
 7.501320190E+02
 9.730996704E+02
 1.374191040E+03
 1.417123291E+03
 1.389574341E+03
 1.366090576E+03
 1.355937744E+03
 1.357422119E+03
 1.358371826E+03
 1.353009766E+03
 1.347023193E+03
 1.340279541E+03
 1.335874878E+03
 1.672323608E+03
 1.941795288E+03
 1.677466064E+03
 1.770829102E+03
 1.744262695E+03
 1.733355835E+03
 1.959354126E+03
 1.945802002E+03
 1.713530884E+03
 1.702777588E+03
 1.766859375E+03
 1.929499878E+03
 1.899529785E+03
 1.640499390E+03
 1.241772339E+03
 9.852351074E+02
 7.852068481E+02
 7.596497803E+02
 7.467656860E+02
 8.423191528E+02
 1.188196167E+03
 1.348608521E+03
 1.349659668E+03
 1.342062744E+03
 1.334817627E+03
 1.328426025E+03
 1.321197266E+03
 1.310922607E+03
 1.292691040E+03
 1.166898438E+03
 9.906085205E+02
 1.083314575E+03
 1.694386230E+03
 1.831328003E+03
 1.767203125E+03
 1.769589844E+03
 1.800556274E+03
 1.757712158E+03
 1.791306396E+03
 1.758026855E+03
 1.691196655E+03
 1.733377319E+03
 1.689773682E+03
 1.722632324E+03
 1.840680420E+03
 1.844145264E+03
 1.658487183E+03
 1.490189453E+03
 1.095039185E+03
 8.075962524E+02
 7.499356689E+02
 7.849067993E+02
 1.187671265E+03
 1.340099121E+03
 1.336230713E+03
 1.329100098E+03
 1.323645752E+03
 1.316551147E+03
 1.307771484E+03
 1.296464355E+03
 1.240289062E+03
 7.613400879E+02
 6.449448242E+02
 7.540809937E+02
 1.165003540E+03
 1.885926880E+03
 1.915087402E+03
 1.781411987E+03
 1.730233887E+03
 1.708023804E+03
 1.693769531E+03
 1.729382324E+03
 1.668151855E+03
 1.632295532E+03
 1.543040771E+03
 1.513144775E+03
 1.537588745E+03
 1.564093262E+03
 1.547665649E+03
 1.566678345E+03
 1.322539795E+03
 9.648777466E+02
 7.979301147E+02
 9.191073608E+02
 1.299115967E+03
 1.324347900E+03
 1.322251587E+03
 1.321106201E+03
 1.318043945E+03
 1.313710449E+03
 1.308435547E+03
 1.301207153E+03
 1.280595215E+03
 9.637803955E+02
 6.925158081E+02
 7.921282959E+02
 6.568269043E+02
 1.416633789E+03
 1.841620361E+03
 1.762748901E+03
 1.715591797E+03
 1.766283569E+03
 1.857335327E+03
 1.487090942E+03
 1.341286011E+03
 1.317837158E+03
 1.592882690E+03
 1.663745972E+03
 1.639727417E+03
 1.649950195E+03
 1.669265015E+03
 1.556668823E+03
 1.063852417E+03
 8.669801636E+02
 9.336278687E+02
 1.135988892E+03
 1.312209473E+03
 1.324489136E+03
 1.326628662E+03
 1.327941162E+03
 1.327089233E+03
 1.325311157E+03
 1.323309692E+03
 1.320127319E+03
 1.310590088E+03
 1.123707886E+03
 7.898565674E+02
 8.766174316E+02
 4.308605652E+02
 7.953271484E+02
 1.648013428E+03
 1.417420532E+03
 1.595028809E+03
 1.504919678E+03
 1.439496094E+03
 1.317924438E+03
 1.315918579E+03
 1.330912964E+03
 1.394899536E+03
 1.708059937E+03
 1.712845825E+03
 1.684608765E+03
 1.761079346E+03
 1.696461792E+03
 1.120140015E+03
 1.159782227E+03
 1.301246948E+03
 1.327913330E+03
 1.331219360E+03
 1.335400391E+03
 1.340281738E+03
 1.343716675E+03
 1.345484375E+03
 1.346787720E+03
 1.347047852E+03
 1.343789429E+03
 1.333188477E+03
 1.137516846E+03
 7.775752563E+02
 1.048079834E+03
 4.186328125E+02
 5.387472534E+02
 1.317061157E+03
 1.309708862E+03
 1.384230347E+03
 1.406710815E+03
 1.369593506E+03
 1.347326904E+03
 1.346289062E+03
 1.372801147E+03
 1.382994263E+03
 1.536553833E+03
 1.795506470E+03
 1.777940918E+03
 1.938352295E+03
 1.900491577E+03
 1.366027588E+03
 1.368668701E+03
 1.355864502E+03
 1.348894287E+03
 1.351354370E+03
 1.357263062E+03
 1.363358765E+03
 1.367787109E+03
 1.370941040E+03
 1.374530884E+03
 1.375336670E+03
 1.366806885E+03
 1.349849365E+03
 1.116440063E+03
 7.450867920E+02
 1.063578613E+03
 4.941443787E+02
 5.844453735E+02
 1.108236694E+03
 1.386670532E+03
 1.823437866E+03
 1.853891479E+03
 1.826333984E+03
 1.596635254E+03
 1.507877197E+03
 1.420058105E+03
 1.361719849E+03
 1.559245605E+03
 1.828598145E+03
 1.759328247E+03
 1.923641235E+03
 2.033099731E+03
 1.436731934E+03
 1.318884277E+03
 1.386182495E+03
 1.383023193E+03
 1.379457642E+03
 1.384878906E+03
 1.391908691E+03
 1.396983154E+03
 1.399336548E+03
 1.402143921E+03
 1.403126221E+03
 1.386097412E+03
 1.342339478E+03
 9.386921387E+02
 7.804185181E+02
 9.725407715E+02
 5.498435669E+02
 5.648499146E+02
 1.209619263E+03
 1.703744629E+03
 1.778874878E+03
 1.820089600E+03
 1.882585327E+03
 1.903420410E+03
 1.925000244E+03
 1.797248169E+03
 1.431779297E+03
 1.548415039E+03
 1.857349976E+03
 1.766123535E+03
 1.822652344E+03
 2.219339600E+03
 2.040118530E+03
 1.434176147E+03
 1.289313599E+03
 1.402280029E+03
 1.411176025E+03
 1.414792114E+03
 1.424057617E+03
 1.430646484E+03
 1.431159668E+03
 1.426630737E+03
 1.422406982E+03
 1.397885986E+03
 1.190468872E+03
 7.109285889E+02
 8.257558594E+02
 7.820242310E+02
 6.796030884E+02
 8.340116577E+02
 1.940017212E+03
 1.931224365E+03
 1.696697021E+03
 1.758511963E+03
 1.802392334E+03
 1.813324829E+03
 1.785397827E+03
 1.711360718E+03
 1.859091431E+03
 1.641844482E+03
 1.725792114E+03
 1.727266968E+03
 1.905402710E+03
 2.279915283E+03
 2.039963257E+03
 1.553477295E+03
 1.168397339E+03
 1.252511719E+03
 1.405226685E+03
 1.435900391E+03
 1.451051392E+03
 1.460275391E+03
 1.456731567E+03
 1.442238647E+03
 1.428014160E+03
 1.392994873E+03
 9.324785156E+02
 6.462805786E+02
 7.801813354E+02
 7.058263550E+02
 1.334415161E+03
 1.879882935E+03
 2.064095215E+03
 1.862874512E+03
 1.824421265E+03
 1.842811768E+03
 1.855972168E+03
 1.854199951E+03
 1.753377930E+03
 1.635786621E+03
 1.966174927E+03
 2.104084229E+03
 1.703076294E+03
 1.724891846E+03
 2.031412109E+03
 2.141741943E+03
 1.253945190E+03
 8.490891724E+02
 8.353513794E+02
 8.992453613E+02
 1.141772461E+03
 1.396865967E+03
 1.456350220E+03
 1.466988770E+03
 1.461803101E+03
 1.444999268E+03
 1.428380859E+03
 1.389550903E+03
 9.850130005E+02
 5.998031006E+02
 7.314785767E+02
 6.817431641E+02
 1.916822876E+03
 2.141210938E+03
 2.094678223E+03
 2.010957764E+03
 1.890424927E+03
 1.865827637E+03
 1.873571045E+03
 1.901778076E+03
 1.857569702E+03
 1.765679321E+03
 1.920582031E+03
 1.676337036E+03
 1.555023071E+03
 1.615510986E+03
 1.842411621E+03
 1.315550171E+03
 7.866553345E+02
 7.297817993E+02
 7.295270386E+02
 8.522924194E+02
 1.050004883E+03
 1.352829468E+03
 1.455252441E+03
 1.458982056E+03
 1.451993042E+03
 1.435912598E+03
 1.421156128E+03
 1.390525391E+03
 1.217721680E+03
 8.918002930E+02
 8.806578979E+02
 9.603256836E+02
 1.968848389E+03
 2.059524658E+03
 2.147047363E+03
 2.000748291E+03
 1.885417114E+03
 1.884956909E+03
 1.906789307E+03
 2.072697510E+03
 1.882384033E+03
 2.076040527E+03
 1.910121338E+03
 1.265562256E+03
 1.050623169E+03
 1.026564087E+03
 1.154113281E+03
 9.247543945E+02
 7.790926514E+02
 7.092485962E+02
 7.153936768E+02
 1.080432983E+03
 1.413225464E+03
 1.436899292E+03
 1.436570068E+03
 1.425212891E+03
 1.412494995E+03
 1.401945679E+03
 1.391047607E+03
 1.367180786E+03
 1.338623169E+03
 1.243766846E+03
 1.162613647E+03
 1.220411743E+03
 1.734705200E+03
 1.814221680E+03
 1.910362427E+03
 2.074303467E+03
 1.966415771E+03
 1.941326172E+03
 1.968090210E+03
 1.954942505E+03
 1.884924316E+03
 1.824022095E+03
 1.578720093E+03
 1.436324097E+03
 1.077468140E+03
 8.399310303E+02
 7.963483276E+02
 8.241823730E+02
 7.906820068E+02
 7.482459717E+02
 7.136355591E+02
 7.208323975E+02
 1.045282227E+03
 1.414151367E+03
 1.459390991E+03
 1.434968262E+03
 1.407274170E+03
 1.391447266E+03
 1.389491577E+03
 1.382036377E+03
 1.362687134E+03
 1.346997559E+03
 1.331188110E+03
 1.326160767E+03
 8.634147339E+02
 1.772766602E+03
 1.650336914E+03
 1.704827271E+03
 1.772395508E+03
 1.792848877E+03
 1.763280884E+03
 1.745650879E+03
 1.729504883E+03
 1.747946533E+03
 1.626130127E+03
 1.611307495E+03
 1.207546753E+03
 9.341463013E+02
 7.711954346E+02
 7.643695679E+02
 7.765939941E+02
 7.852141724E+02
 7.722179565E+02
 7.252393188E+02
 7.742667847E+02
 1.204287598E+03
 1.450989502E+03
 1.404392090E+03
 1.209918579E+03
 1.058689453E+03
 1.151795288E+03
 1.318450806E+03
 1.357131714E+03
 1.354302246E+03
 1.346641357E+03
 1.339561523E+03
 2.098208496E+03
 2.030187500E+03
 1.850116333E+03
 1.834969238E+03
 1.848980347E+03
 1.828212402E+03
 1.843307983E+03
 1.910418091E+03
 1.900163330E+03
 1.807689819E+03
 1.585607422E+03
 1.211027344E+03
 9.862966309E+02
 9.361074829E+02
 8.874772949E+02
 8.837454834E+02
 8.916658936E+02
 8.899490967E+02
 8.718449707E+02
 8.158139038E+02
 7.826260376E+02
 7.727468262E+02
 1.155383057E+03
 1.467977905E+03
 1.523031982E+03
 1.497539185E+03
 1.414202637E+03
 1.338749023E+03
 1.282976929E+03
 1.225902832E+03
 1.186966919E+03
 1.175329956E+03
 1.784283936E+03
 1.666102661E+03
 1.704910034E+03
 1.719478027E+03
 1.725795044E+03
 1.730098633E+03
 1.928539062E+03
 2.051996094E+03
 2.013964966E+03
 1.992368042E+03
 1.846081421E+03
 1.686999023E+03
 1.634358521E+03
 1.362177124E+03
 1.064969238E+03
 9.185265503E+02
 8.016102905E+02
 7.646137695E+02
 7.548335571E+02
 7.502588501E+02
 8.122761230E+02
 1.192699219E+03
 1.448822388E+03
 1.452997803E+03
 1.430588379E+03
 1.415128174E+03
 1.404038330E+03
 1.388946655E+03
 1.371266113E+03
 1.357417480E+03
 1.342286133E+03
 1.327109497E+03
 1.543686646E+03
 1.681801147E+03
 1.685770630E+03
 1.717218628E+03
 1.710303589E+03
 1.677322266E+03
 1.935284424E+03
 1.764056885E+03
 1.776983887E+03
 1.864739990E+03
 1.907391235E+03
 1.694695557E+03
 1.540958740E+03
 1.556682007E+03
 1.682726807E+03
 1.562692749E+03
 1.081086182E+03
 7.961000366E+02
 8.048843384E+02
 1.162829468E+03
 1.377275269E+03
 1.398344971E+03
 1.380162720E+03
 1.370346802E+03
 1.363523193E+03
 1.356374023E+03
 1.344057373E+03
 1.327821899E+03
 1.250219604E+03
 8.249804077E+02
 6.107138062E+02
 6.671718750E+02
 6.849165649E+02
 1.659240234E+03