TITLE     = "fluent19.2.0  build-id: 10236"
VARIABLES = "Temperature"
DATASETAUXDATA Common.DensityVar="55"
DATASETAUXDATA Common.PressureVar="4"
DATASETAUXDATA Common.TemperatureVar="19"
DATASETAUXDATA Common.TurbulentDynamicViscosityVar="59"
DATASETAUXDATA Common.UVar="7"
DATASETAUXDATA Common.VectorVarsAreVelocity="TRUE"
DATASETAUXDATA Common.ViscosityVar="58"
DATASETAUXDATA Common.VVar="10"
DATASETAUXDATA Common.WVar="13"
ZONE T="Rectangular zone"
 STRANDID=0, SOLUTIONTIME=0.00225
 I=32, J=16, K=16, ZONETYPE=Ordered
 DATAPACKING=POINT
 DT=(SINGLE )
 7.893955688E+02
 8.350412598E+02
 9.163007812E+02
 1.143452515E+03
 1.350959595E+03
 1.051709717E+03
 8.236693726E+02
 7.640762939E+02
 7.568241577E+02
 7.561027222E+02
 7.571127319E+02
 7.582955933E+02
 7.592598877E+02
 7.592265015E+02
 7.600927124E+02
 7.636260986E+02
 7.541355591E+02
 7.281408691E+02
 7.015759888E+02
 6.984295044E+02
 8.144605103E+02
 1.063484619E+03
 1.158873657E+03
 1.226214233E+03
 1.212076904E+03
 1.153592896E+03
 1.148813721E+03
 1.188332764E+03
 1.231288208E+03
 1.256726929E+03
 1.269921265E+03
 1.278290527E+03
 9.428878784E+02
 1.267036743E+03
 1.500407471E+03
 1.660420898E+03
 1.687756348E+03
 1.571200684E+03
 1.358314209E+03
 1.081591431E+03
 8.669044800E+02
 7.713387451E+02
 7.486547241E+02
 7.446978760E+02
 7.452959595E+02
 7.453426514E+02
 7.429782715E+02
 7.385054321E+02
 7.342783813E+02
 7.178351440E+02
 6.989380493E+02
 7.406028442E+02
 1.054919800E+03
 1.218103760E+03
 1.226969604E+03
 1.176218018E+03
 1.119951538E+03
 1.140601318E+03
 1.220678955E+03
 1.278023926E+03
 1.303914673E+03
 1.312319214E+03
 1.313830566E+03
 1.313138794E+03
 1.471192505E+03
 1.738380615E+03
 1.777465088E+03
 1.787556396E+03
 1.780629272E+03
 1.786177368E+03
 1.701614624E+03
 1.580844238E+03
 1.473088013E+03
 9.299727783E+02
 7.775736084E+02
 7.605184937E+02
 7.825041504E+02
 8.013046875E+02
 7.791206055E+02
 7.446030273E+02
 7.326278687E+02
 7.295728760E+02
 7.143389282E+02
 8.619149170E+02
 1.254700806E+03
 1.292935791E+03
 1.192412598E+03
 1.076709717E+03
 1.144150391E+03
 1.258452515E+03
 1.312344971E+03
 1.323853271E+03
 1.322613403E+03
 1.320169678E+03
 1.317477051E+03
 1.314774658E+03
 1.858816040E+03
 1.795560547E+03
 1.706567871E+03
 1.680350220E+03
 1.701192139E+03
 1.674662598E+03
 1.666704590E+03
 1.676627319E+03
 1.879517334E+03
 1.126772949E+03
 8.595216064E+02
 8.797361450E+02
 1.030051025E+03
 1.078738892E+03
 1.006700073E+03
 8.095818481E+02
 7.462539673E+02
 7.404146118E+02
 7.312119751E+02
 1.074647705E+03
 1.363513428E+03
 1.267241577E+03
 1.143469116E+03
 1.073169189E+03
 1.257822388E+03
 1.325572266E+03
 1.332514160E+03
 1.328837891E+03
 1.323971436E+03
 1.319675171E+03
 1.316099243E+03
 1.313489868E+03
 1.975077637E+03
 1.848110352E+03
 1.735573730E+03
 1.729864990E+03
 1.742678101E+03
 1.621903320E+03
 1.713079712E+03
 1.785595459E+03
 1.966006348E+03
 1.281518555E+03
 1.185164429E+03
 1.270677490E+03
 1.421193726E+03
 1.452539429E+03
 1.370389404E+03
 8.963762817E+02
 7.667993774E+02
 7.408831177E+02
 8.165281372E+02
 1.226302612E+03
 1.378944946E+03
 1.252286133E+03
 1.117031250E+03
 1.068398193E+03
 1.280885376E+03
 1.334877930E+03
 1.335286987E+03
 1.329978027E+03
 1.325009277E+03
 1.321085449E+03
 1.317984497E+03
 1.315996704E+03
 2.083578613E+03
 1.952073608E+03
 1.943565063E+03
 1.840296631E+03
 1.819676514E+03
 1.746457886E+03
 1.846162476E+03
 1.952350830E+03
 2.024193481E+03
 1.614405029E+03
 1.464385742E+03
 1.531651855E+03
 1.611048828E+03
 1.609594604E+03
 1.476883545E+03
 9.302627563E+02
 7.831537476E+02
 7.518156128E+02
 8.929592896E+02
 1.301526123E+03
 1.385911011E+03
 1.259755493E+03
 1.133544312E+03
 1.045836304E+03
 1.280426514E+03
 1.343050659E+03
 1.339727051E+03
 1.333603394E+03
 1.328882690E+03
 1.325701538E+03
 1.323686523E+03
 1.322204102E+03
 2.076687256E+03
 2.089798584E+03
 1.995147339E+03
 1.835897217E+03
 1.846202637E+03
 1.836733887E+03
 1.830106323E+03
 1.934137207E+03
 1.871483154E+03
 1.775069702E+03
 1.508494019E+03
 1.577710083E+03
 1.659973999E+03
 1.644116943E+03
 1.555680420E+03
 1.047359375E+03
 8.319992065E+02
 8.593472290E+02
 1.180978516E+03
 1.399214111E+03
 1.404045898E+03
 1.273463257E+03
 1.155544067E+03
 1.015702942E+03
 1.235172485E+03
 1.343686279E+03
 1.344179810E+03
 1.338300293E+03
 1.334317139E+03
 1.332009277E+03
 1.331210938E+03
 1.329587891E+03
 1.901681152E+03
 2.131028809E+03
 1.988590576E+03
 1.786489136E+03
 1.850702515E+03
 1.862751831E+03
 1.848981934E+03
 1.917360107E+03
 1.763513428E+03
 2.003000488E+03
 1.586247925E+03
 1.548156982E+03
 1.624501953E+03
 1.609884644E+03
 1.667036377E+03
 1.334834595E+03
 9.696129761E+02
 1.010350464E+03
 1.401606812E+03
 1.467959473E+03
 1.432399902E+03
 1.281807129E+03
 1.149963989E+03
 9.924168091E+02
 1.157552246E+03
 1.336500000E+03
 1.349251953E+03
 1.343774048E+03
 1.340168823E+03
 1.338066772E+03
 1.337324951E+03
 1.334791504E+03
 1.691684326E+03
 1.942623169E+03
 1.992630493E+03
 1.749818604E+03
 1.850228271E+03
 1.872933350E+03
 1.844792969E+03
 1.894075928E+03
 1.729267212E+03
 2.060388916E+03
 1.937978638E+03
 1.685867310E+03
 1.674231445E+03
 1.727001221E+03
 1.853748901E+03
 1.768980591E+03
 1.292253906E+03
 1.012406006E+03
 1.223117798E+03
 1.443360840E+03
 1.463785522E+03
 1.327870972E+03
 1.153250610E+03
 9.927764893E+02
 1.082299927E+03
 1.307352661E+03
 1.348393799E+03
 1.346733398E+03
 1.342630859E+03
 1.339175537E+03
 1.336472656E+03
 1.331866089E+03
 1.645981567E+03
 1.816388672E+03
 1.935113525E+03
 1.716410645E+03
 1.841167358E+03
 1.870481201E+03
 1.797502563E+03
 1.811170044E+03
 1.888485718E+03
 1.978365479E+03
 1.951353882E+03
 1.877193604E+03
 1.930482544E+03
 1.989694824E+03
 1.959389648E+03
 1.989129272E+03
 1.645239990E+03
 1.165675781E+03
 9.670463257E+02
 1.254607178E+03
 1.463341431E+03
 1.400893433E+03
 1.200235840E+03
 1.022522888E+03
 1.061410889E+03
 1.262317017E+03
 1.329063965E+03
 1.337694336E+03
 1.334659424E+03
 1.328962036E+03
 1.322784424E+03
 1.314969238E+03
 1.857296753E+03
 1.808107788E+03
 1.815363037E+03
 1.699900269E+03
 1.803877441E+03
 1.828224365E+03
 1.808319092E+03
 1.856553467E+03
 2.018926514E+03
 1.595658569E+03
 1.333930786E+03
 1.266017578E+03
 1.443607666E+03
 1.567943848E+03
 1.516517822E+03
 1.647424316E+03
 1.549435669E+03
 1.173683838E+03
 8.641428833E+02
 9.757602539E+02
 1.382259766E+03
 1.450447876E+03
 1.270153931E+03
 1.095392944E+03
 1.098732178E+03
 1.224284546E+03
 1.287685913E+03
 1.304506836E+03
 1.304895142E+03
 1.299167480E+03
 1.291304688E+03
 1.281605957E+03
 1.907428711E+03
 1.733850830E+03
 1.785541870E+03
 1.764234009E+03
 1.783116333E+03
 1.795262817E+03
 1.826829224E+03
 1.795356201E+03
 1.958334351E+03
 1.462462158E+03
 9.787885132E+02
 8.532600708E+02
 8.175092773E+02
 8.224317627E+02
 8.388497314E+02
 9.536525269E+02
 1.010378113E+03
 9.187505493E+02
 7.792996216E+02
 8.143093262E+02
 1.257145020E+03
 1.467069336E+03
 1.336081787E+03
 1.184051758E+03
 1.154965698E+03
 1.203094238E+03
 1.237631592E+03
 1.251238281E+03
 1.254969238E+03
 1.253870850E+03
 1.250727539E+03
 1.246342041E+03
 1.505228516E+03
 1.907072388E+03
 1.737642578E+03
 1.747609497E+03
 1.772798462E+03
 1.781022583E+03
 1.733964233E+03
 1.681353516E+03
 1.810944092E+03
 1.206047485E+03
 8.442972412E+02
 7.671599121E+02
 7.466705933E+02
 7.395669556E+02
 7.388236694E+02
 7.443928223E+02
 7.490418701E+02
 7.573978882E+02
 7.243152466E+02
 8.562409058E+02
 1.286953369E+03
 1.462691040E+03
 1.361775391E+03
 1.238725098E+03
 1.190103882E+03
 1.188322144E+03
 1.196621582E+03
 1.208516113E+03
 1.221707886E+03
 1.231848145E+03
 1.238102051E+03
 1.243009033E+03
 1.132796997E+03
 1.648787231E+03
 1.576272583E+03
 1.648437134E+03
 1.728175781E+03
 1.714386719E+03
 1.640598633E+03
 1.621052246E+03
 1.355861816E+03
 8.537377319E+02
 7.568167114E+02
 7.427349243E+02
 7.387677612E+02
 7.359902344E+02
 7.352925415E+02
 7.374984741E+02
 7.373357544E+02
 7.259614258E+02
 7.247523804E+02
 9.361710815E+02
 1.320692017E+03
 1.414512451E+03
 1.328772339E+03
 1.237191528E+03
 1.188669556E+03
 1.176256348E+03
 1.186842529E+03
 1.210436768E+03
 1.235704834E+03
 1.253707520E+03
 1.264584839E+03
 1.272787354E+03
 9.997830811E+02
 1.560692627E+03
 1.603415894E+03
 1.662244385E+03
 1.705909302E+03
 1.543395630E+03
 1.311324585E+03
 1.069659058E+03
 8.379450073E+02
 7.648336182E+02
 7.551135254E+02
 7.539672852E+02
 7.543311768E+02
 7.556814575E+02
 7.591781616E+02
 7.720432739E+02
 7.824322510E+02
 7.579036255E+02
 7.737268066E+02
 1.026460693E+03
 1.252837524E+03
 1.280492310E+03
 1.219188965E+03
 1.173366577E+03
 1.155895996E+03
 1.170249390E+03
 1.205821533E+03
 1.242222168E+03
 1.269383301E+03
 1.285500610E+03
 1.294724487E+03
 1.300824463E+03
 8.011756592E+02
 1.619432617E+03
 1.773327515E+03
 1.752515869E+03
 1.727950317E+03
 1.364509521E+03
 8.921858521E+02
 7.714533081E+02
 7.579459839E+02
 7.551577148E+02
 7.552136841E+02
 7.569165649E+02
 7.591165161E+02
 7.627072144E+02
 7.671928711E+02
 7.815975952E+02
 8.222143555E+02
 8.245644531E+02
 8.102507324E+02
 9.645616455E+02
 1.130525879E+03
 1.163767944E+03
 1.152543335E+03
 1.150400635E+03
 1.162279297E+03
 1.201784180E+03
 1.247583496E+03
 1.280592529E+03
 1.298708252E+03
 1.307572388E+03
 1.312708374E+03
 1.316019775E+03
 9.369236450E+02
 1.178593018E+03
 1.110476196E+03
 1.119931152E+03
 1.365330566E+03
 1.141728027E+03
 8.671848755E+02
 7.851193848E+02
 7.701942139E+02
 7.651002808E+02
 7.624037476E+02
 7.607026978E+02
 7.599133301E+02
 7.594966431E+02
 7.589548340E+02
 7.638363037E+02
 7.662263794E+02
 7.465245972E+02
 7.270902710E+02
 7.101209717E+02
 8.400538330E+02
 1.200178223E+03
 1.309538208E+03
 1.352793823E+03
 1.325006836E+03
 1.255699097E+03
 1.224120850E+03
 1.224051758E+03
 1.240777588E+03
 1.259969116E+03
 1.271116211E+03
 1.277317139E+03
 1.871043457E+03
 1.853522461E+03
 1.820341309E+03
 1.830235962E+03
 1.883926880E+03
 1.896257568E+03
 1.774862793E+03
 1.873318604E+03
 1.127424927E+03
 8.260795288E+02
 7.584422607E+02
 7.501961670E+02
 7.524487305E+02
 7.532958984E+02
 7.525364380E+02
 7.616749268E+02
 7.581773682E+02
 7.542378540E+02
 7.548935547E+02
 1.183005981E+03
 1.424348267E+03
 1.390216797E+03
 1.363795654E+03
 1.352337524E+03
 1.343434448E+03
 1.344494873E+03
 1.346447388E+03
 1.342579224E+03
 1.336753052E+03
 1.330881348E+03
 1.325538330E+03
 1.320280396E+03
 1.815706177E+03
 1.693865845E+03
 1.697640259E+03
 1.745479492E+03
 1.763774780E+03
 1.778633301E+03
 1.694385254E+03
 1.665591187E+03
 1.612534180E+03
 1.434964966E+03
 8.991461182E+02
 8.715129395E+02
 9.620828247E+02
 9.585625610E+02
 8.361754761E+02
 7.611032104E+02
 7.461057739E+02
 7.404785156E+02
 7.373071899E+02
 1.102330322E+03
 1.390677002E+03
 1.384943481E+03
 1.361153442E+03
 1.353638550E+03
 1.347746216E+03
 1.342776855E+03
 1.338087402E+03
 1.331550049E+03
 1.324162964E+03
 1.316708984E+03
 1.309282227E+03
 1.304040283E+03
 1.707423584E+03
 1.629081177E+03
 1.678450439E+03
 1.774680542E+03
 1.760495972E+03
 1.716859009E+03
 1.700674927E+03
 1.574821045E+03
 1.776475708E+03
 1.733359131E+03
 1.266133057E+03
 1.305570557E+03
 1.444943604E+03
 1.445222656E+03
 1.256702515E+03
 9.303328247E+02
 7.777443848E+02
 7.395605469E+02
 7.906465454E+02
 1.244313354E+03
 1.391977295E+03
 1.376648682E+03
 1.359425049E+03
 1.351140259E+03
 1.341078735E+03
 1.331835449E+03
 1.324597656E+03
 1.318230469E+03
 1.311777222E+03
 1.304596558E+03
 1.288114014E+03
 1.270003174E+03
 1.907050415E+03
 1.761447144E+03
 1.811868530E+03
 1.824177124E+03
 1.827557251E+03
 1.742930908E+03
 1.689758423E+03
 1.597752197E+03
 1.957672241E+03
 1.688622070E+03
 1.493216553E+03
 1.494194946E+03
 1.516890381E+03
 1.529725830E+03
 1.545051270E+03
 1.105979004E+03
 8.286936646E+02
 7.547929688E+02
 8.804418945E+02
 1.311556152E+03
 1.383682373E+03
 1.367975098E+03
 1.357172485E+03
 1.350028687E+03
 1.339363770E+03
 1.331095581E+03
 1.324262817E+03
 1.318411621E+03
 1.312937744E+03
 1.306487183E+03
 1.240140381E+03
 1.053979736E+03
 1.973754272E+03
 2.045945679E+03
 1.940584595E+03
 1.908670776E+03
 1.810914673E+03
 1.755911621E+03
 1.729392578E+03
 1.629891602E+03
 1.791059082E+03
 1.449318970E+03
 1.483116943E+03
 1.499381714E+03
 1.482790161E+03
 1.588619995E+03
 1.540484375E+03
 1.018025024E+03
 8.049022217E+02
 7.886789551E+02
 1.159516724E+03
 1.368391968E+03
 1.381375244E+03
 1.366879883E+03
 1.352760010E+03
 1.351075439E+03
 1.341443848E+03
 1.334529541E+03
 1.329661255E+03
 1.325967041E+03
 1.322944946E+03
 1.317574463E+03
 1.148396362E+03
 7.373922729E+02
 2.094762207E+03
 2.093658691E+03
 1.834818970E+03
 1.981795776E+03
 1.832975464E+03
 1.796288574E+03
 1.839350952E+03
 1.898710693E+03
 1.628133423E+03
 1.412858887E+03
 1.502871338E+03
 1.552266724E+03
 1.473358154E+03
 1.547246704E+03
 1.610075195E+03
 1.136864502E+03
 8.775612793E+02
 1.127550415E+03
 1.336039429E+03
 1.381971436E+03
 1.385618530E+03
 1.370828369E+03
 1.351879639E+03
 1.357854736E+03
 1.351433350E+03
 1.345741577E+03
 1.342469971E+03
 1.340277466E+03
 1.338693970E+03
 1.332424072E+03
 1.051060669E+03
 5.848646240E+02
 2.147893311E+03
 2.042538696E+03
 1.969382324E+03
 1.928002808E+03
 2.003009033E+03
 1.843906738E+03
 1.827274536E+03
 1.898865723E+03
 1.836161011E+03
 1.454387817E+03
 1.475804443E+03
 1.679996094E+03
 1.581726440E+03
 1.586468384E+03
 1.700325195E+03
 1.587933838E+03
 1.093435303E+03
 1.377681519E+03
 1.402979370E+03
 1.389688232E+03
 1.392754272E+03
 1.385799072E+03
 1.358942261E+03
 1.364985718E+03
 1.367596558E+03
 1.363437012E+03
 1.361221558E+03
 1.358793579E+03
 1.355713989E+03
 1.345381836E+03
 1.038909668E+03
 5.900344238E+02
 1.932604126E+03
 2.023899170E+03
 2.087444580E+03
 1.911453613E+03
 1.865740601E+03
 1.832874634E+03
 1.812802979E+03
 1.734467041E+03
 1.853270752E+03
 1.614949463E+03
 1.400572021E+03
 1.715000244E+03
 1.728351685E+03
 1.707975708E+03
 1.776947144E+03
 2.100219238E+03
 1.386508911E+03
 1.264626709E+03
 1.422778687E+03
 1.412537720E+03
 1.407443848E+03
 1.407161865E+03
 1.385399658E+03
 1.379054077E+03
 1.386789917E+03
 1.384782471E+03
 1.382998169E+03
 1.378105469E+03
 1.368432983E+03
 1.347751831E+03
 9.065557251E+02
 5.912513428E+02
 1.537425537E+03
 1.847772583E+03
 2.076161133E+03
 1.811089600E+03
 1.779465698E+03
 1.838367065E+03
 1.831807617E+03
 1.822527710E+03
 1.818559082E+03
 1.902398438E+03
 1.718242676E+03
 1.664808594E+03
 1.742892456E+03
 1.815591064E+03
 2.040311401E+03
 2.209434570E+03
 1.686598145E+03
 1.087931274E+03
 1.333339355E+03
 1.452881104E+03
 1.443433105E+03
 1.437098267E+03
 1.421651733E+03
 1.405010986E+03
 1.403607910E+03
 1.400683838E+03
 1.396588989E+03
 1.389463867E+03
 1.371960693E+03
 1.335179565E+03
 8.445062866E+02
 6.685119629E+02
 1.750880859E+03
 1.768583740E+03
 1.789160522E+03
 1.709448486E+03
 1.850692261E+03
 1.850040527E+03
 1.828038330E+03
 1.794072632E+03
 1.944005005E+03
 2.066960205E+03
 2.057323730E+03
 1.964848511E+03
 1.992775879E+03
 2.098999023E+03
 2.134610596E+03
 1.964296387E+03
 1.677455444E+03
 1.062769409E+03
 1.090795532E+03
 1.431000854E+03
 1.491377930E+03
 1.480944092E+03
 1.454229980E+03
 1.423680664E+03
 1.408194946E+03
 1.397708252E+03
 1.390469971E+03
 1.386396851E+03
 1.370168213E+03
 1.328903564E+03
 1.071477051E+03
 1.008095642E+03
 1.837954590E+03
 1.771277344E+03
 1.838593750E+03
 1.756873901E+03
 1.918922974E+03
 1.872356445E+03
 1.839858032E+03
 1.700163330E+03
 1.737726929E+03
 2.011067139E+03
 1.592834106E+03
 1.436733521E+03
 1.811429932E+03
 1.784054199E+03
 1.508588867E+03
 1.164517456E+03
 1.003709961E+03
 9.187279663E+02
 8.224234619E+02
 1.257427856E+03
 1.504867676E+03
 1.519997192E+03
 1.478936646E+03
 1.427245361E+03
 1.392865112E+03
 1.373396484E+03
 1.368767944E+03
 1.377148193E+03
 1.369965454E+03
 1.346888672E+03
 1.291179565E+03
 1.287326050E+03
 1.853355347E+03
 1.740333984E+03
 2.013251221E+03
 1.854237793E+03
 1.901410156E+03
 1.870369995E+03
 1.832219727E+03
 1.609046265E+03
 1.794775024E+03
 1.517678223E+03
 9.507785034E+02
 8.434063721E+02
 9.681353760E+02
 9.034311523E+02
 7.926422729E+02
 7.446417236E+02
 7.361437378E+02
 7.415789185E+02
 7.363673096E+02
 1.079911011E+03
 1.440272705E+03
 1.525916138E+03
 1.497482056E+03
 1.434984863E+03
 1.390860474E+03
 1.369868164E+03
 1.363561279E+03
 1.377754517E+03
 1.377318970E+03
 1.362727539E+03
 1.350035400E+03
 1.341825684E+03
 1.604004395E+03
 1.672986694E+03
 2.015502930E+03
 2.006569946E+03
 1.943840698E+03
 1.859102905E+03
 1.778229492E+03
 1.696655273E+03
 1.527487671E+03
 9.243685913E+02
 7.811355591E+02
 7.570290527E+02
 7.573446655E+02
 7.697006226E+02
 7.683876343E+02
 7.635457764E+02
 7.306644287E+02
 7.120988159E+02
 7.193540039E+02
 8.942824707E+02
 1.289458618E+03
 1.500693848E+03
 1.508812988E+03
 1.459967407E+03
 1.427377808E+03
 1.409801514E+03
 1.399265625E+03
 1.397718018E+03
 1.385750488E+03
 1.369670654E+03
 1.357492676E+03
 1.348285889E+03
 1.137741089E+03
 1.647068359E+03
 1.872582886E+03
 2.108166748E+03
 2.059700439E+03
 1.838881470E+03
 1.734169067E+03
 1.817741333E+03
 1.020822266E+03
 7.961554565E+02
 7.684495239E+02
 7.651004028E+02
 7.682322388E+02
 7.834339600E+02
 7.946857910E+02
 8.064019775E+02
 7.408460693E+02
 6.959932251E+02
 7.396649780E+02
 1.071502075E+03
 1.375485229E+03
 1.508053833E+03
 1.505088257E+03
 1.469506348E+03
 1.446744507E+03
 1.434111938E+03
 1.420582031E+03
 1.400381226E+03
 1.380019409E+03
 1.364726318E+03
 1.354177490E+03
 1.345875977E+03
 8.633179932E+02
 1.582448730E+03
 1.615269043E+03
 1.694428955E+03
 1.746882202E+03
 1.653133423E+03
 1.423014038E+03
 1.196455688E+03
 9.456739502E+02
 7.976452637E+02
 7.467601318E+02
 7.386118164E+02
 7.403880005E+02
 7.415258179E+02
 7.349980469E+02
 7.330200195E+02
 7.475935059E+02
 7.425808716E+02
 7.469186401E+02
 1.027865601E+03
 1.363036743E+03
 1.407400635E+03
 1.327122437E+03
 1.247847778E+03
 1.244151978E+03
 1.298841064E+03
 1.342212402E+03
 1.358541016E+03
 1.358912964E+03
 1.353604736E+03
 1.347312256E+03
 1.341608154E+03
 1.218992920E+03
 1.793377441E+03
 1.673294678E+03
 1.417423706E+03
 1.437904785E+03
 1.509368164E+03
 1.301340698E+03
 9.697579956E+02
 8.358386841E+02
 7.910838623E+02
 7.742684937E+02
 7.651389160E+02
 7.624248657E+02
 7.588195190E+02
 7.572336426E+02
 7.612255249E+02
 7.668013306E+02
 7.615820923E+02
 7.579157715E+02
 7.296782227E+02
 8.952716064E+02
 1.309326050E+03
 1.460296265E+03
 1.469793213E+03
 1.401459961E+03
 1.313510132E+03
 1.252873535E+03
 1.221922485E+03
 1.219142822E+03
 1.231963013E+03
 1.246667725E+03
 1.258855835E+03
 2.107884521E+03
 1.783315918E+03
 1.681457275E+03
 1.678539185E+03
 1.820592529E+03
 1.776624512E+03
 1.809878174E+03
 1.904229248E+03
 1.576396362E+03
 1.295002686E+03
 1.102987061E+03
 9.589048462E+02
 8.986998291E+02
 8.297877197E+02
 7.737810669E+02
 7.594387207E+02
 7.513861694E+02
 7.506343994E+02
 7.576200562E+02
 1.086679688E+03
 1.444082031E+03
 1.458671021E+03
 1.427244751E+03
 1.410270508E+03
 1.395631226E+03
 1.386659790E+03
 1.377900391E+03
 1.365959229E+03
 1.355473877E+03
 1.346775635E+03
 1.338739868E+03
 1.331000000E+03
 1.767390503E+03
 1.623096558E+03
 1.661639038E+03
 1.776850830E+03
 1.736805908E+03
 1.729600342E+03
 1.682012939E+03
 1.734481812E+03
 1.882187622E+03
 1.785152222E+03
 1.682052979E+03
 1.658183594E+03
 1.590424683E+03
 1.564883179E+03
 1.202884644E+03
 8.301842041E+02
 7.608554688E+02
 7.353666992E+02
 9.737066650E+02
 1.339531860E+03
 1.383795044E+03
 1.374428345E+03
 1.366177612E+03
 1.359014771E+03
 1.353520874E+03
 1.345706787E+03
 1.335698975E+03
 1.324677734E+03
 1.311932739E+03
 1.295419189E+03
 1.242823730E+03
 1.231603149E+03
 1.654465698E+03
 1.629132812E+03
 1.708583862E+03
 1.816437256E+03
 1.790751465E+03
 1.744062988E+03
 1.737503784E+03
 1.666244019E+03
 1.746981201E+03
 2.061996826E+03
 1.773661011E+03
 1.560127319E+03
 1.626616821E+03
 1.621504761E+03
 1.552088135E+03
 1.036144897E+03
 8.029434204E+02
 7.338685303E+02
 9.130499878E+02
 1.313099487E+03
 1.359275635E+03
 1.348044312E+03
 1.338711548E+03
 1.330735352E+03
 1.323624146E+03
 1.316330688E+03
 1.308182129E+03
 1.298371582E+03
 1.283252441E+03
 1.122793701E+03
 7.230184937E+02
 7.075029297E+02
 1.692797485E+03
 1.718206177E+03
 1.754540527E+03
 1.787211670E+03
 1.780823608E+03
 1.757041992E+03
 1.667415039E+03
 1.898343872E+03
 1.676538940E+03
 1.564475830E+03
 1.402475220E+03
 1.517341675E+03
 1.577046509E+03
 1.542966919E+03
 1.590419800E+03
 1.188776733E+03
 8.637855225E+02
 7.642075806E+02
 1.130581177E+03
 1.339873657E+03
 1.331946167E+03
 1.326018921E+03
 1.322031372E+03
 1.317821289E+03
 1.313131348E+03
 1.308127808E+03
 1.302282227E+03
 1.294244263E+03
 1.278471069E+03
 1.039464233E+03
 5.306690674E+02
 6.612835083E+02
 1.060995239E+03
 1.968675049E+03
 2.100099854E+03
 2.002615479E+03
 1.812514526E+03
 1.675334595E+03
 1.686624512E+03
 1.587795410E+03
 1.344868652E+03
 1.337132690E+03
 1.345341919E+03
 1.469550659E+03
 1.499809570E+03
 1.466706543E+03
 1.169863770E+03
 9.008215942E+02
 8.301256104E+02
 1.027845215E+03
 1.279168335E+03
 1.329444946E+03
 1.325220825E+03
 1.323630493E+03
 1.322333496E+03
 1.320354248E+03
 1.318044434E+03
 1.315470703E+03
 1.312106201E+03
 1.306508789E+03
 1.293486450E+03
 1.112299316E+03
 6.167429199E+02
 7.979304810E+02
 1.316784058E+03
 2.025094971E+03
 1.880702148E+03
 1.815357788E+03
 1.717174805E+03
 1.772518677E+03
 1.725604492E+03
 1.448523071E+03
 1.323596680E+03
 1.358188721E+03
 1.340024170E+03
 1.376398682E+03
 1.497402588E+03
 1.377117554E+03
 1.071742920E+03
 1.009921692E+03
 1.208454346E+03
 1.337311768E+03
 1.334101807E+03
 1.329438965E+03
 1.330340088E+03
 1.332325317E+03
 1.333715088E+03
 1.334290283E+03
 1.334451782E+03
 1.333842163E+03
 1.331420776E+03
 1.325343994E+03
 1.310783569E+03
 1.142113770E+03
 6.675964966E+02
 8.301514893E+02
 7.668193970E+02
 1.873418457E+03
 1.639124512E+03
 1.447771118E+03
 1.531253174E+03
 1.619497681E+03
 1.566596802E+03
 1.402397949E+03
 1.359161865E+03
 1.392954102E+03
 1.398071411E+03
 1.372007446E+03
 1.618396729E+03
 1.607682373E+03
 1.299586548E+03
 1.288313110E+03
 1.390022949E+03
 1.354392090E+03
 1.342921265E+03
 1.342706787E+03
 1.346437744E+03
 1.350966675E+03
 1.354670898E+03
 1.357305664E+03
 1.359093018E+03
 1.358715942E+03
 1.353436279E+03
 1.342619873E+03
 1.323646484E+03
 1.132500488E+03
 6.596157227E+02
 8.780022583E+02
 4.237921753E+02
 1.277061523E+03
 1.780880249E+03
 1.681029541E+03
 1.795776245E+03
 1.841093994E+03
 1.894181641E+03
 1.721432617E+03
 1.492060181E+03
 1.425006714E+03
 1.329052124E+03
 1.466108765E+03
 1.794760376E+03
 1.860601196E+03
 1.679361328E+03
 1.244999756E+03
 1.368919312E+03
 1.394228638E+03
 1.370245850E+03
 1.365938721E+03
 1.369854492E+03
 1.375925171E+03
 1.381231079E+03
 1.384802124E+03
 1.386758179E+03
 1.385774536E+03
 1.374175415E+03
 1.354488037E+03
 1.319337891E+03
 9.252587891E+02
 6.399415283E+02
 8.805241699E+02
 4.690467224E+02
 1.262059326E+03
 2.076808350E+03
 1.951658936E+03
 1.634236694E+03
 1.673407104E+03
 1.699153320E+03
 1.728592529E+03
 1.872257568E+03
 1.554693481E+03
 1.233866333E+03
 1.589900513E+03
 1.734525879E+03
 1.703151245E+03
 2.110553223E+03
 1.658479736E+03
 1.189421997E+03
 1.379280029E+03
 1.415383301E+03
 1.397765259E+03
 1.398498901E+03
 1.405347290E+03
 1.411197876E+03
 1.414385498E+03
 1.413157959E+03
 1.409533447E+03
 1.390754517E+03
 1.359697144E+03
 1.230900269E+03
 6.351061401E+02
 6.704716797E+02
 7.841903076E+02
 1.059043213E+03
 1.815234985E+03
 1.875676758E+03
 1.691380493E+03
 1.662298584E+03
 1.719808350E+03
 1.702023682E+03
 1.719061401E+03
 1.849771484E+03
 1.972549438E+03
 1.538480103E+03
 1.461981934E+03
 1.846239990E+03
 1.753057739E+03
 2.057311279E+03
 2.170776123E+03
 1.526276611E+03
 1.112391479E+03
 1.392510986E+03
 1.432986694E+03
 1.429659546E+03
 1.437417969E+03
 1.443156616E+03
 1.443579346E+03
 1.434872681E+03
 1.423644775E+03
 1.398458862E+03
 1.358894531E+03
 1.117185425E+03
 5.463398438E+02
 6.490438232E+02
 6.667337646E+02
 1.259500732E+03
 1.957950684E+03
 2.010188721E+03
 1.763295776E+03
 1.830547241E+03
 1.853021484E+03
 1.806331299E+03
 1.721889526E+03
 2.050356689E+03
 2.104261475E+03
 2.026069580E+03
 1.713140869E+03
 1.612858154E+03
 1.678433838E+03
 2.115072754E+03
 1.498410889E+03
 1.119114380E+03
 9.025178223E+02
 1.114071045E+03
 1.367842896E+03
 1.446911377E+03
 1.457854370E+03
 1.461557983E+03
 1.456678467E+03
 1.442466675E+03
 1.426742554E+03
 1.400212891E+03
 1.360308472E+03
 1.242900391E+03
 6.560151367E+02
 5.540390625E+02
 6.782183838E+02
 1.738687378E+03
 2.000353760E+03
 2.066022949E+03
 1.848942993E+03
 1.868518188E+03
 1.857378784E+03
 1.791073853E+03
 1.786178711E+03
 1.975169800E+03
 1.778627808E+03
 1.804252197E+03
 2.028404785E+03
 1.961531616E+03
 1.896243286E+03
 1.483684814E+03
 8.437855225E+02
 7.357034912E+02
 7.189340820E+02
 7.853129883E+02
 1.140502563E+03
 1.430458130E+03
 1.471644409E+03
 1.466895996E+03
 1.456835449E+03
 1.440905273E+03
 1.423390381E+03
 1.400992432E+03
 1.366286743E+03
 1.327717896E+03
 1.120097778E+03
 9.932666016E+02
 1.106391357E+03
 2.034631470E+03
 1.879562744E+03
 2.096629883E+03
 1.906624146E+03
 1.889507202E+03
 1.888414795E+03
 1.749875732E+03
 1.901040527E+03
 1.887905151E+03
 1.124619751E+03
 9.946378784E+02
 1.577230835E+03
 2.003213867E+03
 1.756588745E+03
 9.539656372E+02
 7.773329468E+02
 7.117056274E+02
 7.025065918E+02
 9.506750488E+02
 1.336414062E+03
 1.440936279E+03
 1.455483887E+03
 1.443981934E+03
 1.430049194E+03
 1.416973145E+03
 1.404144653E+03
 1.385833130E+03
 1.359388916E+03
 1.337991821E+03
 1.320127319E+03
 1.297644897E+03
 1.298876343E+03
 1.290718018E+03
 1.695832397E+03
 1.929345093E+03
 1.983865723E+03
 1.916017944E+03
 1.856078735E+03
 1.812697998E+03
 1.790427612E+03
 1.687199951E+03
 1.266358887E+03
 8.493220825E+02
 7.884071045E+02
 9.174003906E+02
 1.007802063E+03
 9.148084717E+02
 8.146486816E+02
 7.396032104E+02
 7.022067871E+02
 7.608532715E+02
 1.250315186E+03
 1.488654663E+03
 1.482580200E+03
 1.456412598E+03
 1.434940918E+03
 1.418252319E+03
 1.408839355E+03
 1.394257568E+03
 1.371956299E+03
 1.354887329E+03
 1.343615601E+03
 1.335469604E+03
 1.329738892E+03
 1.250233887E+03
 1.504472778E+03
 1.556517700E+03
 1.756659912E+03
 1.839319092E+03
 1.830997070E+03
 1.741676147E+03
 1.609123535E+03
 1.575503540E+03
 1.225384521E+03
 8.773247070E+02
 7.538113403E+02
 7.509227905E+02
 7.771852417E+02
 7.980360107E+02
 7.963500366E+02
 7.567412720E+02
 7.210587158E+02
 7.163110352E+02
 1.052524292E+03
 1.447671143E+03
 1.491255371E+03
 1.350953735E+03
 1.199455933E+03
 1.232003540E+03
 1.337088745E+03
 1.369131470E+03
 1.365827148E+03
 1.355845215E+03
 1.346857666E+03
 1.339426880E+03
 1.333464233E+03
 1.720631836E+03
 1.898247192E+03
 1.814534546E+03
 1.748604736E+03
 1.759937012E+03
 1.810479492E+03
 1.829628784E+03
 1.518951294E+03
 1.032118774E+03
 8.475454712E+02
 8.485751343E+02
 8.438334351E+02
 9.193659668E+02
 1.050125977E+03
 1.039181396E+03
 9.564834595E+02
 8.428312378E+02
 7.866557617E+02
 7.734541016E+02
 7.505068970E+02
 1.049083496E+03
 1.419898071E+03
 1.531282227E+03
 1.515447876E+03
 1.425393066E+03
 1.332864014E+03
 1.247764404E+03
 1.176737061E+03
 1.145323853E+03
 1.144822510E+03
 1.159266113E+03
 1.177085083E+03
 2.021300415E+03
 1.734693970E+03
 1.682476685E+03
 1.702053223E+03
 1.714959595E+03
 1.769328369E+03
 1.751637817E+03
 1.952856567E+03
 1.800867798E+03
 1.669740845E+03
 1.615363403E+03
 1.390241577E+03
 1.246719727E+03
 1.121324951E+03
 9.631494141E+02
 8.169774170E+02
 7.615431519E+02
 7.556992188E+02
 7.425321045E+02
 8.976243896E+02
 1.381829712E+03
 1.520725464E+03
 1.496609131E+03
 1.467446655E+03
 1.438922363E+03
 1.405064941E+03
 1.370243896E+03
 1.346781006E+03
 1.340038696E+03
 1.335535889E+03
 1.329260864E+03
 1.324886108E+03
 1.719820068E+03
 1.558989624E+03
 1.652601074E+03
 1.801186279E+03
 1.748342773E+03
 1.618292847E+03
 1.585582520E+03
 1.745309570E+03
 1.829506348E+03
 1.931266846E+03
 1.832676025E+03
 1.802135254E+03
 1.809660767E+03
 2.074931396E+03
 2.028698120E+03
 1.129988525E+03
 7.817836914E+02
 7.765197144E+02
 1.166197998E+03
 1.426676147E+03
 1.449840088E+03
 1.420656494E+03
 1.407872314E+03
 1.400205078E+03
 1.394478394E+03
 1.384281494E+03
 1.362666748E+03
 1.341411255E+03
 1.322668457E+03
 1.222926514E+03
 8.938289795E+02
 7.896900024E+02
 1.793987915E+03
 1.715682251E+03