TITLE     = "fluent19.2.0  build-id: 10236"
VARIABLES = "Temperature"
DATASETAUXDATA Common.DensityVar="55"
DATASETAUXDATA Common.PressureVar="4"
DATASETAUXDATA Common.TemperatureVar="19"
DATASETAUXDATA Common.TurbulentDynamicViscosityVar="59"
DATASETAUXDATA Common.UVar="7"
DATASETAUXDATA Common.VectorVarsAreVelocity="TRUE"
DATASETAUXDATA Common.ViscosityVar="58"
DATASETAUXDATA Common.VVar="10"
DATASETAUXDATA Common.WVar="13"
ZONE T="Rectangular zone"
 STRANDID=0, SOLUTIONTIME=0.00225
 I=64, J=32, K=32, ZONETYPE=Ordered
 DATAPACKING=POINT
 DT=(SINGLE )
 7.893955688E+02
 8.111054688E+02
 8.341720581E+02
 8.723843384E+02
 9.143276367E+02
 9.848135986E+02
 1.127389771E+03
 1.304715820E+03
 1.353981567E+03
 1.234758789E+03
 1.078656738E+03
 9.431371460E+02
 8.419514771E+02
 7.882796021E+02
 7.670332031E+02
 7.597985229E+02
 7.572391357E+02
 7.563421631E+02
 7.561211548E+02
 7.563350830E+02
 7.569119873E+02
 7.575559692E+02
 7.581031494E+02
 7.586346436E+02
 7.591329956E+02
 7.594349365E+02
 7.593099365E+02
 7.588214111E+02
 7.594252930E+02
 7.619705200E+02
 7.636997681E+02
 7.620275879E+02
 7.573301392E+02
 7.495628052E+02
 7.367330322E+02
 7.203573608E+02
 7.068184204E+02
 6.993641357E+02
 6.960931396E+02
 7.014816895E+02
 7.466422729E+02
 8.604132080E+02
 9.958682861E+02
 1.086221680E+03
 1.134616089E+03
 1.172354492E+03
 1.209171509E+03
 1.234833862E+03
 1.233402466E+03
 1.205048950E+03
 1.171621948E+03
 1.150050781E+03
 1.143146362E+03
 1.150497803E+03
 1.168507324E+03
 1.191450195E+03
 1.213989136E+03
 1.232868652E+03
 1.247027954E+03
 1.257184937E+03
 1.264488403E+03
 1.270057007E+03
 1.274601440E+03
 1.278290527E+03
 8.254288940E+02
 8.853757324E+02
 1.009266113E+03
 1.128893066E+03
 1.201999146E+03
 1.281548584E+03
 1.393005493E+03
 1.503076294E+03
 1.530526367E+03
 1.453711548E+03
 1.335593506E+03
 1.215179810E+03
 1.090645630E+03
 9.826074829E+02
 8.935635376E+02
 8.158165283E+02
 7.751007080E+02
 7.596252441E+02
 7.538754272E+02
 7.514393311E+02
 7.504046631E+02
 7.500609131E+02
 7.499891357E+02
 7.501911011E+02
 7.506193237E+02
 7.507589722E+02
 7.501347046E+02
 7.493005371E+02
 7.494921265E+02
 7.504936523E+02
 7.502395020E+02
 7.482910156E+02
 7.453477173E+02
 7.393080444E+02
 7.279903564E+02
 7.142776489E+02
 7.033557739E+02
 6.971394043E+02
 6.964407959E+02
 7.317799683E+02
 8.403067017E+02
 9.863738403E+02
 1.102373413E+03
 1.167420410E+03
 1.200797485E+03
 1.220974487E+03
 1.225659546E+03
 1.211681030E+03
 1.184690796E+03
 1.153547974E+03
 1.133171997E+03
 1.134747314E+03
 1.154773315E+03
 1.182822754E+03
 1.210916504E+03
 1.235698242E+03
 1.255716187E+03
 1.270553223E+03
 1.280722290E+03
 1.287262817E+03
 1.291504272E+03
 1.294425415E+03
 1.296570801E+03
 1.298082520E+03
 9.267769165E+02
 1.060927490E+03
 1.238488525E+03
 1.401520386E+03
 1.479898193E+03
 1.557540527E+03
 1.638779419E+03
 1.681008179E+03
 1.679634888E+03
 1.638229614E+03
 1.569169189E+03
 1.484998779E+03
 1.365604736E+03
 1.231032349E+03
 1.089993774E+03
 9.547770386E+02
 8.697539673E+02
 8.142960205E+02
 7.770296631E+02
 7.583890381E+02
 7.501625977E+02
 7.466364136E+02
 7.451080322E+02
 7.445662231E+02
 7.449030762E+02
 7.454889526E+02
 7.452593384E+02
 7.443753052E+02
 7.436806030E+02
 7.426224976E+02
 7.401695557E+02
 7.376173096E+02
 7.358070068E+02
 7.315248413E+02
 7.227407837E+02
 7.121972046E+02
 7.030133667E+02
 6.968989868E+02
 7.003644409E+02
 7.655122681E+02
 9.293514404E+02
 1.103241943E+03
 1.197541748E+03
 1.227648926E+03
 1.235430176E+03
 1.232793701E+03
 1.209321289E+03
 1.169256226E+03
 1.133317993E+03
 1.114292969E+03
 1.116795288E+03
 1.142233032E+03
 1.182472900E+03
 1.223258545E+03
 1.255456177E+03
 1.278314697E+03
 1.293691528E+03
 1.303355713E+03
 1.308885010E+03
 1.311675171E+03
 1.312956421E+03
 1.313454834E+03
 1.313431885E+03
 1.312955933E+03
 1.163640137E+03
 1.374219604E+03
 1.552780273E+03
 1.676579468E+03
 1.725154541E+03
 1.771095337E+03
 1.803659058E+03
 1.806351318E+03
 1.800621216E+03
 1.790378052E+03
 1.769163818E+03
 1.725661133E+03
 1.629751709E+03
 1.508156982E+03
 1.384061401E+03
 1.272805786E+03
 1.156567139E+03
 9.960093384E+02
 8.614989624E+02
 7.926462402E+02
 7.632320557E+02
 7.513624878E+02
 7.465284424E+02
 7.445419312E+02
 7.454224243E+02
 7.483319702E+02
 7.502086792E+02
 7.489939575E+02
 7.450082397E+02
 7.400061646E+02
 7.357098389E+02
 7.332364502E+02
 7.320504150E+02
 7.298345337E+02
 7.254957275E+02
 7.186109009E+02
 7.089158936E+02
 7.006008301E+02
 7.104589233E+02
 8.159911499E+02
 1.037960205E+03
 1.229928833E+03
 1.294872681E+03
 1.282876465E+03
 1.251785889E+03
 1.209037598E+03
 1.153007568E+03
 1.102163086E+03
 1.083899170E+03
 1.105837280E+03
 1.149510742E+03
 1.198561279E+03
 1.244943970E+03
 1.280068604E+03
 1.300712524E+03
 1.310966187E+03
 1.315959473E+03
 1.318340820E+03
 1.319302979E+03
 1.319302856E+03
 1.318768066E+03
 1.317848633E+03
 1.316755981E+03
 1.315581177E+03
 1.434039551E+03
 1.634906616E+03
 1.737186279E+03
 1.789708130E+03
 1.791876953E+03
 1.804338379E+03
 1.806149048E+03
 1.795756348E+03
 1.793704590E+03
 1.797963135E+03
 1.798411011E+03
 1.781330322E+03
 1.720036499E+03
 1.639197876E+03
 1.571883789E+03
 1.543275879E+03
 1.459078247E+03
 1.222969971E+03
 9.829934692E+02
 8.488382568E+02
 7.890408325E+02
 7.651462402E+02
 7.585226440E+02
 7.606253662E+02
 7.703882446E+02
 7.833218384E+02
 7.918286743E+02
 7.916182251E+02
 7.815198364E+02
 7.651313477E+02
 7.497467041E+02
 7.395924072E+02
 7.342208862E+02
 7.313952026E+02
 7.299330444E+02
 7.260595703E+02
 7.156844482E+02
 7.134180908E+02
 7.623239746E+02
 9.169854126E+02
 1.139452759E+03
 1.290712769E+03
 1.317246216E+03
 1.284503784E+03
 1.239149048E+03
 1.176370239E+03
 1.108351929E+03
 1.074357910E+03
 1.093560181E+03
 1.148781738E+03
 1.209445801E+03
 1.258500610E+03
 1.292643066E+03
 1.312612915E+03
 1.321356689E+03
 1.323797119E+03
 1.323700439E+03
 1.322815552E+03
 1.321726929E+03
 1.320503052E+03
 1.319243652E+03
 1.317844116E+03
 1.316473633E+03
 1.315126343E+03
 1.712317017E+03
 1.811944458E+03
 1.792267578E+03
 1.754942261E+03
 1.717437866E+03
 1.693990967E+03
 1.684806396E+03
 1.686921631E+03
 1.697348755E+03
 1.707608521E+03
 1.714245605E+03
 1.714332642E+03
 1.689387695E+03
 1.652220581E+03
 1.674661621E+03
 1.801241089E+03
 1.788660400E+03
 1.472197388E+03
 1.117223022E+03
 9.125933228E+02
 8.199930420E+02
 7.841924438E+02
 7.785890503E+02
 7.919189453E+02
 8.187550049E+02
 8.462761841E+02
 8.618497925E+02
 8.606118774E+02
 8.397316895E+02
 8.056357422E+02
 7.735474854E+02
 7.515124512E+02
 7.394893188E+02
 7.349316406E+02
 7.358182373E+02
 7.341107178E+02
 7.221856079E+02
 7.318330688E+02
 8.405524902E+02
 1.046714600E+03
 1.236019897E+03
 1.319736938E+03
 1.308348267E+03
 1.268669067E+03
 1.218183105E+03
 1.138934937E+03
 1.069893066E+03
 1.070797729E+03
 1.136448120E+03
 1.217507812E+03
 1.279660400E+03
 1.313751099E+03
 1.326762207E+03
 1.329233887E+03
 1.327796631E+03
 1.325468262E+03
 1.323251587E+03
 1.321282959E+03
 1.319557617E+03
 1.318021973E+03
 1.316653076E+03
 1.315227051E+03
 1.313997925E+03
 1.312832520E+03
 1.840026367E+03
 1.864758057E+03
 1.797944214E+03
 1.748288208E+03
 1.710741333E+03
 1.686852051E+03
 1.680573608E+03
 1.687363892E+03
 1.698531006E+03
 1.696050537E+03
 1.683225464E+03
 1.679735840E+03
 1.672061890E+03
 1.649995850E+03
 1.666906738E+03
 1.802767700E+03
 1.867884033E+03
 1.606113647E+03
 1.217039062E+03
 9.768609619E+02
 8.724337769E+02
 8.361199951E+02
 8.528708496E+02
 9.103862305E+02
 9.751056519E+02
 1.016965515E+03
 1.039456909E+03
 1.046820801E+03
 1.005832642E+03
 9.168380127E+02
 8.321037598E+02
 7.787398682E+02
 7.519345093E+02
 7.414181519E+02
 7.402746582E+02
 7.367062378E+02
 7.242659302E+02
 7.535349121E+02
 9.179921875E+02
 1.155523926E+03
 1.311406006E+03
 1.341746704E+03
 1.301872314E+03
 1.258664551E+03
 1.203413940E+03
 1.119464722E+03
 1.063848145E+03
 1.096129517E+03
 1.183340820E+03
 1.258786499E+03
 1.302553589E+03
 1.323110107E+03
 1.330574097E+03
 1.331709351E+03
 1.330271240E+03
 1.327984009E+03
 1.325595825E+03
 1.323311279E+03
 1.321189819E+03
 1.319288818E+03
 1.317583496E+03
 1.315903687E+03
 1.314569580E+03
 1.313382568E+03
 1.925068481E+03
 1.912219727E+03
 1.815783691E+03
 1.750557983E+03
 1.711379272E+03
 1.687838745E+03
 1.685891968E+03
 1.698875122E+03
 1.710208862E+03
 1.693830566E+03
 1.660148804E+03
 1.650016602E+03
 1.664725464E+03
 1.675173340E+03
 1.696108276E+03
 1.816828857E+03
 1.909973145E+03
 1.692675171E+03
 1.304071655E+03
 1.059332397E+03
 9.687902832E+02
 9.467479248E+02
 9.822927246E+02
 1.063994263E+03
 1.147679932E+03
 1.196669556E+03
 1.219786621E+03
 1.235531494E+03
 1.192225708E+03
 1.057696777E+03
 9.089517212E+02
 8.132286987E+02
 7.676934204E+02
 7.497848511E+02
 7.446352539E+02
 7.381267090E+02
 7.325501099E+02
 7.915073242E+02
 9.926108398E+02
 1.237786865E+03
 1.366820679E+03
 1.359593750E+03
 1.295748535E+03
 1.248463867E+03
 1.192343750E+03
 1.104029297E+03
 1.053844849E+03
 1.104728271E+03
 1.209407593E+03
 1.287189575E+03
 1.321461304E+03
 1.332103149E+03
 1.334354004E+03
 1.333753052E+03
 1.331915283E+03
 1.329502686E+03
 1.326984375E+03
 1.324554565E+03
 1.322273682E+03
 1.320248169E+03
 1.318445801E+03
 1.316690918E+03
 1.315361572E+03
 1.314244141E+03
 1.963207642E+03
 2.000546143E+03
 1.844132324E+03
 1.760741333E+03
 1.729775757E+03
 1.713123291E+03
 1.718002808E+03
 1.736238770E+03
 1.735517700E+03
 1.691399292E+03
 1.635561157E+03
 1.627436523E+03
 1.691273926E+03
 1.753579346E+03
 1.768628418E+03
 1.856215454E+03
 1.942962158E+03
 1.738165894E+03
 1.369161987E+03
 1.173277100E+03
 1.138959717E+03
 1.148256104E+03
 1.192378418E+03
 1.270681885E+03
 1.348452637E+03
 1.390133667E+03
 1.405626587E+03
 1.433056885E+03
 1.381483276E+03
 1.185327637E+03
 9.698237305E+02
 8.377908936E+02
 7.800610962E+02
 7.574183350E+02
 7.461010132E+02
 7.364871216E+02
 7.575363770E+02
 8.700586548E+02
 1.077106812E+03
 1.279119995E+03
 1.377418213E+03
 1.355430298E+03
 1.287559204E+03
 1.242519409E+03
 1.184211304E+03
 1.092287842E+03
 1.043424561E+03
 1.100619751E+03
 1.210846191E+03
 1.290602417E+03
 1.324309204E+03
 1.334272827E+03
 1.335772339E+03
 1.334419678E+03
 1.332076050E+03
 1.329439331E+03
 1.326937256E+03
 1.324641235E+03
 1.322530518E+03
 1.320757202E+03
 1.319161865E+03
 1.317600830E+03
 1.316469849E+03
 1.315562134E+03
 2.021459839E+03
 2.023366333E+03
 1.882163574E+03
 1.834874878E+03
 1.815199585E+03
 1.789833252E+03
 1.776776855E+03
 1.780232056E+03
 1.775743896E+03
 1.735455200E+03
 1.675735962E+03
 1.657227173E+03
 1.742562500E+03
 1.852000854E+03
 1.865970215E+03
 1.911585205E+03
 1.980990356E+03
 1.811311768E+03
 1.505119507E+03
 1.342426880E+03
 1.312015869E+03
 1.322804443E+03
 1.363236816E+03
 1.423105835E+03
 1.480180542E+03
 1.510444092E+03
 1.516357300E+03
 1.538919678E+03
 1.480083496E+03
 1.255136597E+03
 1.004612366E+03
 8.528966675E+02
 7.889778442E+02
 7.633838501E+02
 7.474306030E+02
 7.366842041E+02
 7.701791992E+02
 9.116076050E+02
 1.131536255E+03
 1.313099854E+03
 1.388345215E+03
 1.354277344E+03
 1.284131226E+03
 1.244166138E+03
 1.188428101E+03
 1.093013794E+03
 1.036884521E+03
 1.092358154E+03
 1.210110718E+03
 1.295766357E+03
 1.330097290E+03
 1.338572632E+03
 1.338650146E+03
 1.336426025E+03
 1.333657959E+03
 1.330836670E+03
 1.328297729E+03
 1.326064331E+03
 1.324073608E+03
 1.322503906E+03
 1.321156860E+03
 1.319809937E+03
 1.318846802E+03
 1.318084839E+03
 2.067729004E+03
 2.024406128E+03
 1.933207642E+03
 1.937912964E+03
 1.919248657E+03
 1.874964233E+03
 1.836849365E+03
 1.820898315E+03
 1.814885498E+03
 1.790237183E+03
 1.736344238E+03
 1.707996460E+03
 1.809876953E+03
 1.956022949E+03
 1.959131958E+03
 1.962953003E+03
 2.016666016E+03
 1.892527954E+03
 1.657746582E+03
 1.513002319E+03
 1.466395752E+03
 1.468726807E+03
 1.502719971E+03
 1.543749146E+03
 1.582556396E+03
 1.604198608E+03
 1.600937134E+03
 1.613682373E+03
 1.541974243E+03
 1.296108154E+03
 1.026083008E+03
 8.641358032E+02
 7.972522583E+02
 7.691612549E+02
 7.494340210E+02
 7.420688477E+02
 7.914625854E+02
 9.557269287E+02
 1.178954102E+03
 1.340554565E+03
 1.397801025E+03
 1.354071289E+03
 1.283821655E+03
 1.250189575E+03
 1.197360107E+03
 1.098340576E+03
 1.032095215E+03
 1.081593384E+03
 1.204779785E+03
 1.297771362E+03
 1.334678467E+03
 1.342536621E+03
 1.341473755E+03
 1.338525024E+03
 1.335456055E+03
 1.332541748E+03
 1.330018799E+03
 1.327874756E+03
 1.326019043E+03
 1.324657227E+03
 1.323575562E+03
 1.322463379E+03
 1.321659790E+03
 1.321013306E+03
 2.122875244E+03
 2.041956421E+03
 2.005696899E+03
 2.051044922E+03
 1.988614746E+03
 1.901180664E+03
 1.858563354E+03
 1.836505615E+03
 1.835405518E+03
 1.836615967E+03
 1.800305664E+03
 1.762409546E+03
 1.818865967E+03
 1.925542603E+03
 1.960819702E+03
 1.960539795E+03
 1.966860352E+03
 1.897875000E+03
 1.747597290E+03
 1.600585571E+03
 1.505259155E+03
 1.487559937E+03
 1.532864136E+03
 1.583631470E+03
 1.623753784E+03
 1.646149536E+03
 1.639474365E+03
 1.637663452E+03
 1.563148438E+03
 1.325532471E+03
 1.052488525E+03
 8.833584595E+02
 8.113319702E+02
 7.786738892E+02
 7.609778442E+02
 7.853870850E+02
 8.751592407E+02
 1.033941040E+03
 1.221534668E+03
 1.358873169E+03
 1.405752075E+03
 1.360015015E+03
 1.293062500E+03
 1.261699097E+03
 1.211886230E+03
 1.111210449E+03
 1.027398926E+03
 1.058628662E+03
 1.183815063E+03
 1.288924438E+03
 1.333718384E+03
 1.344119141E+03
 1.343460205E+03
 1.340500488E+03
 1.337486816E+03
 1.334695679E+03
 1.332339355E+03
 1.330399414E+03
 1.328757080E+03
 1.327647095E+03
 1.326951416E+03
 1.326040161E+03
 1.325247070E+03
 1.324582031E+03
 2.101432861E+03
 2.069828857E+03
 2.067133301E+03
 2.116428955E+03
 2.017383667E+03
 1.886381348E+03
 1.842469360E+03
 1.838556519E+03
 1.843757202E+03
 1.855176147E+03
 1.834938965E+03
 1.801760254E+03
 1.832562988E+03
 1.898666504E+03
 1.941456543E+03
 1.959813354E+03
 1.928553589E+03
 1.868210327E+03
 1.787095947E+03
 1.656878174E+03
 1.534931396E+03
 1.503833374E+03
 1.550553833E+03
 1.605643433E+03
 1.646234375E+03
 1.667386353E+03
 1.656958374E+03
 1.645869873E+03
 1.584226929E+03
 1.384234741E+03
 1.123072510E+03
 9.350330811E+02
 8.444321899E+02
 7.993353271E+02
 7.911091309E+02
 8.650770264E+02
 1.008782837E+03
 1.170832397E+03
 1.312328125E+03
 1.401594971E+03
 1.423354614E+03
 1.369251465E+03
 1.300011475E+03
 1.265967041E+03
 1.217247437E+03
 1.120968506E+03
 1.031234009E+03
 1.041772949E+03
 1.153477539E+03
 1.267404175E+03
 1.326809937E+03
 1.344144897E+03
 1.345296631E+03
 1.342548706E+03
 1.339555054E+03
 1.336881836E+03
 1.334685425E+03
 1.332950562E+03
 1.331523438E+03
 1.330621704E+03
 1.330238770E+03
 1.329612549E+03
 1.328891724E+03
 1.328150391E+03
 2.034268433E+03
 2.098057129E+03
 2.120679443E+03
 2.130651367E+03
 1.992495239E+03
 1.829247803E+03
 1.809943481E+03
 1.834207642E+03
 1.846152222E+03
 1.859982666E+03
 1.849710083E+03
 1.821060913E+03
 1.816967529E+03
 1.834477295E+03
 1.893792480E+03
 1.920896484E+03
 1.842851074E+03
 1.827529053E+03
 1.820242432E+03
 1.687339478E+03
 1.553018677E+03
 1.514316162E+03
 1.557375610E+03
 1.612450439E+03
 1.649536743E+03
 1.668251831E+03
 1.650914307E+03
 1.633982910E+03
 1.619349243E+03
 1.487121216E+03
 1.229440918E+03
 1.007789307E+03
 8.898810425E+02
 8.265979614E+02
 8.554644165E+02
 1.012682556E+03
 1.204819824E+03
 1.340890503E+03
 1.412920654E+03
 1.445942383E+03
 1.441504028E+03
 1.381846313E+03
 1.306442627E+03
 1.263562744E+03
 1.218152222E+03
 1.130004272E+03
 1.031393555E+03
 1.014577698E+03
 1.115670898E+03
 1.245625610E+03
 1.320969971E+03
 1.344892212E+03
 1.347630859E+03
 1.344998413E+03
 1.342023438E+03
 1.339459106E+03
 1.337404907E+03
 1.335881958E+03
 1.334641479E+03
 1.333905151E+03
 1.333857666E+03
 1.333458496E+03
 1.332720337E+03
 1.331787842E+03
 1.944649780E+03
 2.044228394E+03
 2.127697510E+03
 2.141925293E+03
 1.997861328E+03
 1.812495239E+03
 1.789338623E+03
 1.830145630E+03
 1.848550049E+03
 1.861998413E+03
 1.859257690E+03
 1.834188843E+03
 1.835207275E+03
 1.884722900E+03
 1.912628540E+03
 1.866448975E+03
 1.797649902E+03
 1.861652100E+03
 1.930911255E+03
 1.799794678E+03
 1.616698486E+03
 1.528760376E+03
 1.542583374E+03
 1.592698242E+03
 1.627306519E+03
 1.641573242E+03
 1.628555054E+03
 1.619886719E+03
 1.645322998E+03
 1.600534668E+03
 1.386506348E+03
 1.136902344E+03
 9.816429443E+02
 8.865109863E+02
 9.114586792E+02
 1.090565063E+03
 1.286082642E+03
 1.399784180E+03
 1.446144897E+03
 1.461885376E+03
 1.453639282E+03
 1.401343994E+03
 1.321120850E+03
 1.259486084E+03
 1.207577759E+03
 1.128555908E+03
 1.034197510E+03
 9.952882080E+02
 1.072977051E+03
 1.210362061E+03
 1.305734009E+03
 1.341993530E+03
 1.349119385E+03
 1.347442749E+03
 1.344606323E+03
 1.342115723E+03
 1.340111084E+03
 1.338660645E+03
 1.337455933E+03
 1.336672119E+03
 1.336523682E+03
 1.336061768E+03
 1.335143433E+03
 1.333830933E+03
 1.861754028E+03
 1.975348267E+03
 2.097211426E+03
 2.134429688E+03
 2.004507202E+03
 1.806954102E+03
 1.771866577E+03
 1.822062500E+03
 1.849870605E+03
 1.863930908E+03
 1.865890015E+03
 1.844680542E+03
 1.848990845E+03
 1.921883423E+03
 1.930047607E+03
 1.821925415E+03
 1.751686890E+03
 1.870566162E+03
 2.003998657E+03
 1.910321167E+03
 1.718409546E+03
 1.589633057E+03
 1.560607544E+03
 1.588125732E+03
 1.614078125E+03
 1.625191284E+03
 1.621614868E+03
 1.630138184E+03
 1.687543213E+03
 1.709797852E+03
 1.550968140E+03
 1.296671509E+03
 1.105663818E+03
 9.753175049E+02
 9.705601807E+02
 1.125426025E+03
 1.303749756E+03
 1.409961670E+03
 1.454522827E+03
 1.468897827E+03
 1.463040039E+03
 1.420086182E+03
 1.340236450E+03
 1.263394653E+03
 1.201251099E+03
 1.126603027E+03
 1.037615479E+03
 9.848723145E+02
 1.038558838E+03
 1.172209351E+03
 1.283272339E+03
 1.334198486E+03
 1.348237915E+03
 1.348838745E+03
 1.346626221E+03
 1.344346191E+03
 1.342381226E+03
 1.340918579E+03
 1.339663086E+03
 1.338743896E+03
 1.338368042E+03
 1.337710327E+03
 1.336532227E+03
 1.334806030E+03
 1.723427734E+03
 1.872462646E+03
 1.993051270E+03
 2.093371582E+03
 2.008235596E+03
 1.806272461E+03
 1.752649780E+03
 1.810409790E+03
 1.850681274E+03
 1.865672241E+03
 1.870598633E+03
 1.850770386E+03
 1.847703247E+03
 1.922483521E+03
 1.924328613E+03
 1.799428711E+03
 1.729249146E+03
 1.835162231E+03
 2.011653931E+03
 2.035991333E+03
 1.905056519E+03
 1.743318359E+03
 1.641046021E+03
 1.615445679E+03
 1.623941040E+03
 1.637346313E+03
 1.660352051E+03
 1.701878052E+03
 1.772057617E+03
 1.832877808E+03
 1.752965088E+03
 1.520919922E+03
 1.293089966E+03
 1.116996582E+03
 1.010899719E+03
 1.048863281E+03
 1.196262329E+03
 1.343482910E+03
 1.431498169E+03
 1.466887451E+03
 1.471160522E+03
 1.442369751E+03
 1.370651367E+03
 1.281696167E+03
 1.204031128E+03
 1.127126099E+03
 1.042001831E+03
 9.785414429E+02
 1.007908813E+03
 1.134212280E+03
 1.259669312E+03
 1.325602905E+03
 1.347073486E+03
 1.350241821E+03
 1.348804688E+03
 1.346604858E+03
 1.344397461E+03
 1.342597900E+03
 1.340972290E+03
 1.339612061E+03
 1.338625000E+03
 1.337563843E+03
 1.335825928E+03
 1.333605103E+03
 1.654754639E+03
 1.826709229E+03
 1.898736450E+03
 2.009394165E+03
 1.990238403E+03
 1.821297974E+03
 1.740227783E+03
 1.783191162E+03
 1.842210571E+03
 1.870204590E+03
 1.872882446E+03
 1.846609009E+03
 1.831472046E+03
 1.878201050E+03
 1.874457153E+03
 1.788769043E+03
 1.756587402E+03
 1.846984619E+03
 2.004758789E+03
 2.085905273E+03
 2.033220825E+03
 1.910424561E+03
 1.811275757E+03
 1.768311890E+03
 1.760079590E+03
 1.766800415E+03
 1.792683960E+03
 1.835640747E+03
 1.883621948E+03
 1.926859253E+03
 1.894376099E+03
 1.730494019E+03
 1.506020264E+03
 1.290166992E+03
 1.117836304E+03
 1.045346558E+03
 1.093708496E+03
 1.217162476E+03
 1.344137207E+03
 1.429612427E+03
 1.466049561E+03
 1.457267334E+03
 1.400568115E+03
 1.312788696E+03
 1.224244385E+03
 1.138644043E+03
 1.051170654E+03
 9.845225830E+02
 9.994679565E+02
 1.107987305E+03
 1.230855835E+03
 1.306458008E+03
 1.337345581E+03
 1.345932007E+03
 1.347045898E+03
 1.345886963E+03
 1.343854614E+03
 1.341829224E+03
 1.339780884E+03
 1.337834106E+03
 1.336078491E+03
 1.334399414E+03
 1.332028320E+03
 1.329162598E+03
 1.592126465E+03
 1.822729004E+03
 1.817451416E+03
 1.916231812E+03
 1.962351196E+03
 1.835557007E+03
 1.724841309E+03
 1.754072021E+03
 1.833765625E+03
 1.875963379E+03
 1.873849854E+03
 1.836912354E+03
 1.806579712E+03
 1.813939819E+03
 1.811124878E+03
 1.794360107E+03
 1.816755005E+03
 1.879667114E+03
 1.995815552E+03
 2.102607666E+03
 2.106084229E+03
 2.038538208E+03
 1.976776245E+03
 1.942418701E+03
 1.928782227E+03
 1.931598511E+03
 1.954681885E+03
 1.983818726E+03
 1.990496704E+03
 1.999250366E+03
 2.012226929E+03
 1.930382935E+03
 1.719787109E+03
 1.467756470E+03
 1.231983643E+03
 1.051185547E+03
 9.920490723E+02
 1.077627441E+03
 1.239552612E+03
 1.380221191E+03
 1.455053589E+03
 1.469948242E+03
 1.432349121E+03
 1.350081299E+03
 1.251322510E+03
 1.154850342E+03
 1.063064209E+03
 9.938919067E+02
 9.962290039E+02
 1.087118652E+03
 1.204953491E+03
 1.287037720E+03
 1.325952637E+03
 1.339810059E+03
 1.343689087E+03
 1.343731079E+03
 1.341924316E+03
 1.339662720E+03
 1.337109619E+03
 1.334453369E+03
 1.331776245E+03
 1.329442383E+03
 1.326308350E+03
 1.322759644E+03
 1.687857544E+03
 1.899874390E+03
 1.817554199E+03
 1.866552246E+03
 1.920107422E+03
 1.833628296E+03
 1.721437378E+03
 1.740031006E+03
 1.827991089E+03
 1.879453125E+03
 1.870996704E+03
 1.825950317E+03
 1.797366333E+03
 1.799488647E+03
 1.811474609E+03
 1.875458984E+03
 1.918288574E+03
 1.881238037E+03
 1.900234863E+03
 1.926757202E+03
 1.867853394E+03
 1.800622803E+03
 1.798403564E+03
 1.845376709E+03
 1.903181641E+03
 1.956557739E+03
 1.992461426E+03
 1.991050659E+03
 1.955438721E+03
 1.941853516E+03
 1.974532715E+03
 1.965702271E+03
 1.804220825E+03
 1.548679077E+03
 1.310445557E+03
 1.102081665E+03
 9.573234863E+02
 9.495937500E+02
 1.088707153E+03
 1.276997070E+03
 1.412024536E+03
 1.468241577E+03
 1.455380493E+03
 1.386393677E+03
 1.287662964E+03
 1.184306641E+03
 1.089415283E+03
 1.021774231E+03
 1.017414001E+03
 1.088088623E+03
 1.187992676E+03
 1.264728760E+03
 1.306439087E+03
 1.324728394E+03
 1.331776978E+03
 1.334025635E+03
 1.333225098E+03
 1.331050171E+03
 1.328232910E+03
 1.324934448E+03
 1.321325684E+03
 1.318110352E+03
 1.314094971E+03
 1.309650024E+03
 1.765738403E+03
 1.922910156E+03
 1.813685059E+03
 1.835310425E+03
 1.863496094E+03
 1.794616943E+03
 1.709443970E+03
 1.730882446E+03
 1.815173462E+03
 1.867968262E+03
 1.857113892E+03
 1.811567749E+03
 1.793480591E+03
 1.806137451E+03
 1.825626099E+03
 1.924184692E+03
 1.993916748E+03
 1.894477661E+03
 1.794259155E+03
 1.719183838E+03
 1.599103394E+03
 1.511074585E+03
 1.517180298E+03
 1.592583618E+03
 1.686666260E+03
 1.772132690E+03
 1.823252441E+03
 1.813279541E+03
 1.764923950E+03
 1.754088379E+03
 1.807367798E+03
 1.846573730E+03
 1.747259155E+03
 1.531205200E+03
 1.313902588E+03
 1.116138306E+03
 9.457581177E+02
 8.750818481E+02
 9.602752686E+02
 1.148505859E+03
 1.329777222E+03
 1.437869873E+03
 1.461401855E+03
 1.412642822E+03
 1.319575562E+03
 1.213876709E+03
 1.117786621E+03
 1.052397217E+03
 1.045819092E+03
 1.101272949E+03
 1.180784668E+03
 1.245393311E+03
 1.284653320E+03
 1.304883301E+03
 1.314337280E+03
 1.318475220E+03
 1.318987549E+03
 1.317321899E+03
 1.314624878E+03
 1.311207642E+03
 1.307223755E+03
 1.303516846E+03
 1.299005859E+03
 1.294068237E+03
 1.891229370E+03
 1.910263794E+03
 1.803845703E+03
 1.807919189E+03
 1.797602783E+03
 1.743109741E+03
 1.695496216E+03
 1.717230835E+03
 1.786950562E+03
 1.832300415E+03
 1.822386719E+03
 1.794452026E+03
 1.805253662E+03
 1.840980835E+03
 1.863543579E+03
 1.976166382E+03
 2.029522461E+03
 1.825875488E+03
 1.582205688E+03
 1.415726929E+03
 1.270909668E+03
 1.160168335E+03
 1.127363159E+03
 1.175860352E+03
 1.269929199E+03
 1.366283203E+03
 1.425809326E+03
 1.425815308E+03
 1.405593872E+03
 1.431445923E+03
 1.512235962E+03
 1.588542236E+03
 1.561238159E+03
 1.416742310E+03
 1.246938843E+03
 1.086503784E+03
 9.262761230E+02
 8.178317261E+02
 8.469241333E+02
 1.024742554E+03
 1.248084961E+03
 1.407161499E+03
 1.466406982E+03
 1.438229858E+03
 1.353825684E+03
 1.251455322E+03
 1.159326904E+03
 1.097289673E+03
 1.082782959E+03
 1.117051270E+03
 1.175161255E+03
 1.227071289E+03
 1.261933350E+03
 1.282171143E+03
 1.292548340E+03
 1.297899414E+03
 1.299415039E+03
 1.298218994E+03
 1.295906982E+03
 1.292741089E+03
 1.288889160E+03
 1.285042358E+03
 1.280457886E+03
 1.275393799E+03
 1.894126587E+03
 1.825944214E+03
 1.763748779E+03
 1.778604980E+03
 1.789004761E+03
 1.764057251E+03
 1.733217529E+03
 1.739635376E+03
 1.780890381E+03
 1.810928711E+03
 1.806655884E+03
 1.796341309E+03
 1.813645996E+03
 1.836562622E+03
 1.831934937E+03
 1.895583374E+03
 1.977398560E+03
 1.849391968E+03
 1.564670898E+03
 1.305424683E+03
 1.121849976E+03
 1.010283936E+03
 9.626276245E+02
 9.647495117E+02
 9.981831055E+02
 1.042422363E+03
 1.072846313E+03
 1.073719604E+03
 1.070623657E+03
 1.104170044E+03
 1.174302124E+03
 1.243560059E+03
 1.252083130E+03
 1.181150757E+03
 1.081993286E+03
 9.805083008E+02
 8.689630127E+02
 7.818508911E+02
 7.907579346E+02
 9.391291504E+02
 1.167590942E+03
 1.359610229E+03
 1.454344971E+03
 1.451604370E+03
 1.380553467E+03
 1.284990723E+03
 1.198800049E+03
 1.141030518E+03
 1.122229370E+03
 1.140530273E+03
 1.178636841E+03
 1.215196899E+03
 1.241203857E+03
 1.257407471E+03
 1.266418457E+03
 1.271661621E+03
 1.273848633E+03
 1.273655396E+03
 1.272475586E+03
 1.270504395E+03
 1.267873047E+03
 1.265218994E+03
 1.261969604E+03
 1.258348511E+03
 1.860167358E+03
 1.793641724E+03
 1.768465088E+03
 1.775829712E+03
 1.784815796E+03
 1.781453613E+03
 1.769122803E+03
 1.765804688E+03
 1.781358765E+03
 1.795488647E+03
 1.795602051E+03
 1.799097900E+03
 1.814466553E+03
 1.814569458E+03
 1.782689453E+03
 1.808848999E+03
 1.909882812E+03
 1.850429688E+03
 1.549124878E+03
 1.221289795E+03
 1.009952271E+03
 9.023436890E+02
 8.497122803E+02
 8.202489624E+02
 8.038508301E+02
 7.995961914E+02
 8.002465210E+02
 7.987470703E+02
 8.065781250E+02
 8.385446777E+02
 8.882211914E+02
 9.383399658E+02
 9.636612549E+02
 9.491840210E+02
 9.143154297E+02
 8.689739380E+02
 8.058762817E+02
 7.495618896E+02
 7.560559692E+02
 8.853307495E+02
 1.112582275E+03
 1.323808350E+03
 1.443201538E+03
 1.460865479E+03
 1.402463867E+03
 1.314822754E+03
 1.235787964E+03
 1.182788208E+03
 1.160250854E+03
 1.164125000E+03
 1.183713745E+03
 1.205357178E+03
 1.222035522E+03
 1.233383545E+03
 1.240452515E+03
 1.245377075E+03
 1.248269531E+03
 1.249349854E+03
 1.249686035E+03
 1.249302734E+03
 1.248273926E+03
 1.247207520E+03
 1.245717285E+03
 1.243971069E+03
 1.697279419E+03
 1.885437988E+03
 1.891761353E+03
 1.824357178E+03
 1.778913330E+03
 1.776383301E+03
 1.780502441E+03
 1.778888184E+03
 1.782816895E+03
 1.791520142E+03
 1.796600952E+03
 1.797103394E+03
 1.781926025E+03
 1.739769409E+03
 1.704554565E+03
 1.750427002E+03
 1.848792847E+03
 1.770333252E+03
 1.458026245E+03
 1.140104004E+03
 9.474159546E+02
 8.531134644E+02
 8.083642578E+02
 7.849552612E+02
 7.713847046E+02
 7.647877197E+02
 7.623910522E+02
 7.606806030E+02
 7.614906006E+02
 7.700667114E+02
 7.859381714E+02
 8.030001221E+02
 8.131956787E+02
 8.132785034E+02
 8.087715454E+02
 7.935762939E+02
 7.604948730E+02
 7.309756470E+02
 7.641643677E+02
 9.136651611E+02
 1.137534790E+03
 1.333661499E+03
 1.445130981E+03
 1.464898560E+03
 1.413563110E+03
 1.334523926E+03
 1.263114624E+03
 1.213098755E+03
 1.186431519E+03
 1.179183228E+03
 1.184813965E+03
 1.194710327E+03
 1.203460327E+03
 1.210516113E+03
 1.216429932E+03
 1.222218018E+03
 1.227260620E+03
 1.231269287E+03
 1.234562988E+03
 1.236788208E+03
 1.238133179E+03
 1.239446899E+03
 1.240333496E+03
 1.241029053E+03
 1.458254517E+03
 1.882522339E+03
 1.897568848E+03
 1.797970947E+03
 1.721154053E+03
 1.710998047E+03
 1.731772827E+03
 1.750140015E+03
 1.765984375E+03
 1.777222046E+03
 1.774333618E+03
 1.759265015E+03
 1.727501465E+03
 1.683644775E+03
 1.682203735E+03
 1.761403442E+03
 1.797365967E+03
 1.601974243E+03
 1.259501587E+03
 9.967964478E+02
 8.610703125E+02
 7.988853149E+02
 7.703762207E+02
 7.562328491E+02
 7.480357056E+02
 7.429381104E+02
 7.400140991E+02
 7.385798950E+02
 7.382872925E+02
 7.394730835E+02
 7.420800171E+02
 7.448548584E+02
 7.464505615E+02
 7.490312500E+02