TITLE     = "fluent19.2.0  build-id: 10236"
VARIABLES = "Temperature"
DATASETAUXDATA Common.DensityVar="55"
DATASETAUXDATA Common.PressureVar="4"
DATASETAUXDATA Common.TemperatureVar="19"
DATASETAUXDATA Common.TurbulentDynamicViscosityVar="59"
DATASETAUXDATA Common.UVar="7"
DATASETAUXDATA Common.VectorVarsAreVelocity="TRUE"
DATASETAUXDATA Common.ViscosityVar="58"
DATASETAUXDATA Common.VVar="10"
DATASETAUXDATA Common.WVar="13"
ZONE T="Rectangular zone"
 STRANDID=0, SOLUTIONTIME=0.00275
 I=64, J=32, K=32, ZONETYPE=Ordered
 DATAPACKING=POINT
 DT=(SINGLE )
 8.053391724E+02
 1.336403198E+03
 1.681550293E+03
 1.749640625E+03
 1.720474365E+03
 1.634832764E+03
 1.555448975E+03
 1.444357056E+03
 1.287797974E+03
 1.178169434E+03
 1.129350464E+03
 1.105535400E+03
 1.064493286E+03
 9.836490479E+02
 8.824121704E+02
 8.111264038E+02
 7.786695557E+02
 7.660817871E+02
 7.612245483E+02
 7.591588135E+02
 7.582495117E+02
 7.578830566E+02
 7.577152100E+02
 7.575243530E+02
 7.576120605E+02
 7.581693726E+02
 7.586289062E+02
 7.586995239E+02
 7.585601196E+02
 7.582423096E+02
 7.583419189E+02
 7.585590210E+02
 7.572690430E+02
 7.548144531E+02
 7.530890503E+02
 7.521293335E+02
 7.471204224E+02
 7.341740112E+02
 7.188578491E+02
 7.079915161E+02
 7.021168823E+02
 7.146627808E+02
 8.064931641E+02
 9.871208496E+02
 1.150200195E+03
 1.224864258E+03
 1.222821289E+03
 1.182473267E+03
 1.147638184E+03
 1.134345581E+03
 1.140369995E+03
 1.156297119E+03
 1.158133667E+03
 1.138960083E+03
 1.116156372E+03
 1.103844971E+03
 1.106899048E+03
 1.126291382E+03
 1.158605103E+03
 1.195040527E+03
 1.226859375E+03
 1.250407593E+03
 1.266010254E+03
 1.275642090E+03
 9.523173218E+02
 1.511354126E+03
 1.733355347E+03
 1.764120239E+03
 1.734232178E+03
 1.682887329E+03
 1.639439575E+03
 1.583298584E+03
 1.499378784E+03
 1.433392822E+03
 1.406013794E+03
 1.392567505E+03
 1.356988281E+03
 1.278642578E+03
 1.167355103E+03
 1.072094971E+03
 1.016918579E+03
 9.753687134E+02
 9.135189819E+02
 8.406253662E+02
 7.944217529E+02
 7.722280884E+02
 7.621575928E+02
 7.570781250E+02
 7.540921021E+02
 7.524448242E+02
 7.515525513E+02
 7.509604492E+02
 7.503474731E+02
 7.494024658E+02
 7.487722168E+02
 7.481280518E+02
 7.458320923E+02
 7.426560669E+02
 7.408547974E+02
 7.408013916E+02
 7.384501953E+02
 7.289166260E+02
 7.153983154E+02
 7.049395752E+02
 6.998630371E+02
 7.123430786E+02
 8.116545410E+02
 1.005523682E+03
 1.168069824E+03
 1.228158203E+03
 1.222093750E+03
 1.200587646E+03
 1.184084961E+03
 1.167503418E+03
 1.147333862E+03
 1.130196533E+03
 1.111985596E+03
 1.093068115E+03
 1.093342651E+03
 1.118277222E+03
 1.150760254E+03
 1.181242554E+03
 1.211285522E+03
 1.240414673E+03
 1.264818481E+03
 1.282056274E+03
 1.292665039E+03
 1.298566162E+03
 1.150648682E+03
 1.653604614E+03
 1.770034546E+03
 1.763245483E+03
 1.737595215E+03
 1.708651733E+03
 1.686473022E+03
 1.657790894E+03
 1.630381470E+03
 1.618586792E+03
 1.622426025E+03
 1.624312256E+03
 1.606119751E+03
 1.554801636E+03
 1.462021118E+03
 1.365105103E+03
 1.300640747E+03
 1.246424316E+03
 1.147666138E+03
 1.020573242E+03
 9.346593628E+02
 8.886508789E+02
 8.487575684E+02
 8.087238159E+02
 7.777617188E+02
 7.600421143E+02
 7.514241333E+02
 7.475316162E+02
 7.455895996E+02
 7.442382812E+02
 7.437139893E+02
 7.430559692E+02
 7.402190552E+02
 7.362219238E+02
 7.336295166E+02
 7.332518311E+02
 7.322395630E+02
 7.259116211E+02
 7.151732178E+02
 7.053217773E+02
 6.999655151E+02
 7.123032837E+02
 8.171878662E+02
 1.023168030E+03
 1.189355469E+03
 1.238876221E+03
 1.226542480E+03
 1.215932617E+03
 1.207654663E+03
 1.177682007E+03
 1.131975830E+03
 1.091984253E+03
 1.066621094E+03
 1.061743286E+03
 1.090591431E+03
 1.146169556E+03
 1.200190430E+03
 1.238373901E+03
 1.264616333E+03
 1.284656616E+03
 1.299606079E+03
 1.309124023E+03
 1.313971069E+03
 1.315807861E+03
 1.453520020E+03
 1.820313110E+03
 1.794626465E+03
 1.755070435E+03
 1.732485352E+03
 1.722954224E+03
 1.724612305E+03
 1.728101807E+03
 1.733556152E+03
 1.743655396E+03
 1.759072388E+03
 1.774256348E+03
 1.783866333E+03
 1.779413940E+03
 1.737484619E+03
 1.684909668E+03
 1.660352539E+03
 1.620425781E+03
 1.503723877E+03
 1.360667236E+03
 1.292226196E+03
 1.261058228E+03
 1.154469482E+03
 9.891534424E+02
 8.609727173E+02
 7.937070923E+02
 7.639111328E+02
 7.517352905E+02
 7.471981201E+02
 7.465001831E+02
 7.478692627E+02
 7.484581299E+02
 7.457258911E+02
 7.405501099E+02
 7.358589478E+02
 7.334023438E+02
 7.321876831E+02
 7.290776978E+02
 7.225980835E+02
 7.132637939E+02
 7.056193237E+02
 7.218998413E+02
 8.474571533E+02
 1.076462036E+03
 1.242744751E+03
 1.281028687E+03
 1.270799561E+03
 1.264929565E+03
 1.230673828E+03
 1.155620850E+03
 1.080015259E+03
 1.033251587E+03
 1.031991455E+03
 1.075489868E+03
 1.144057617E+03
 1.215316772E+03
 1.267762329E+03
 1.295110718E+03
 1.306454590E+03
 1.311693970E+03
 1.314888428E+03
 1.316698486E+03
 1.317343506E+03
 1.317193604E+03
 1.700370972E+03
 1.897836792E+03
 1.811428223E+03
 1.754594360E+03
 1.734320557E+03
 1.737448242E+03
 1.750711182E+03
 1.767947754E+03
 1.791872925E+03
 1.824923950E+03
 1.860612427E+03
 1.887537476E+03
 1.896307861E+03
 1.878429321E+03
 1.837733154E+03
 1.816828003E+03
 1.835495483E+03
 1.825306763E+03
 1.726683105E+03
 1.613501831E+03
 1.593903564E+03
 1.614234253E+03
 1.494267944E+03
 1.226156128E+03
 9.902254028E+02
 8.601021118E+02
 8.003790894E+02
 7.760104980E+02
 7.664482422E+02
 7.647285767E+02
 7.702855835E+02
 7.775690918E+02
 7.772184448E+02
 7.672343750E+02
 7.542112427E+02
 7.438737183E+02
 7.379667358E+02
 7.349888916E+02
 7.301243286E+02
 7.206311035E+02
 7.254221191E+02
 7.846305542E+02
 9.447980347E+02
 1.155504517E+03
 1.279283569E+03
 1.294840820E+03
 1.288317993E+03
 1.283441284E+03
 1.227778564E+03
 1.125977295E+03
 1.045880005E+03
 1.024395386E+03
 1.060751465E+03
 1.133093750E+03
 1.210624878E+03
 1.270890259E+03
 1.305407959E+03
 1.319432861E+03
 1.322661865E+03
 1.322172485E+03
 1.320987915E+03
 1.319653198E+03
 1.318304199E+03
 1.317077026E+03
 1.889047852E+03
 1.935089600E+03
 1.851939941E+03
 1.785476196E+03
 1.770239624E+03
 1.782291016E+03
 1.797492432E+03
 1.815453491E+03
 1.844907471E+03
 1.896975098E+03
 1.955640991E+03
 1.993573364E+03
 1.974824951E+03
 1.891070557E+03
 1.814953857E+03
 1.812848755E+03
 1.870896484E+03
 1.892682373E+03
 1.838790039E+03
 1.800578857E+03
 1.865183716E+03
 1.963218018E+03
 1.836095825E+03
 1.468245850E+03
 1.130888184E+03
 9.374301147E+02
 8.474871216E+02
 8.109782104E+02
 7.960468750E+02
 7.937789307E+02
 8.060588379E+02
 8.224391479E+02
 8.232572021E+02
 8.043845825E+02
 7.793628540E+02
 7.584609985E+02
 7.461826782E+02
 7.425821533E+02
 7.380926514E+02
 7.277115479E+02
 7.544108887E+02
 8.783638916E+02
 1.073312134E+03
 1.241915527E+03
 1.306526001E+03
 1.299743530E+03
 1.301154541E+03
 1.290991577E+03
 1.209564697E+03
 1.089143677E+03
 1.024079346E+03
 1.047946045E+03
 1.126016724E+03
 1.214557373E+03
 1.280831665E+03
 1.314049316E+03
 1.324873413E+03
 1.326419067E+03
 1.324849365E+03
 1.322468994E+03
 1.320326782E+03
 1.318302490E+03
 1.316504395E+03
 1.315151855E+03
 2.023899902E+03
 2.041168091E+03
 1.993368774E+03
 1.949164795E+03
 1.939242798E+03
 1.929992798E+03
 1.910008179E+03
 1.893747070E+03
 1.899281006E+03
 1.956045288E+03
 2.044896729E+03
 2.119114014E+03
 2.118681396E+03
 2.037778198E+03
 1.950407227E+03
 1.884094971E+03
 1.885954956E+03
 1.896164185E+03
 1.828553345E+03
 1.784887329E+03
 1.865437256E+03
 1.991875122E+03
 1.894769165E+03
 1.559269531E+03
 1.242704712E+03
 1.051603027E+03
 9.550366821E+02
 9.126820068E+02
 8.937120972E+02
 8.964308472E+02
 9.258364868E+02
 9.409569702E+02
 9.080184937E+02
 8.525095825E+02
 8.059545898E+02
 7.743070068E+02
 7.575238647E+02
 7.519309082E+02
 7.431210938E+02
 7.307911377E+02
 7.687318726E+02
 9.306119995E+02
 1.149866821E+03
 1.287407959E+03
 1.307876831E+03
 1.290544189E+03
 1.302336060E+03
 1.292079224E+03
 1.205772217E+03
 1.087458008E+03
 1.035279785E+03
 1.083952026E+03
 1.175177124E+03
 1.249984741E+03
 1.295984863E+03
 1.318563354E+03
 1.326497070E+03
 1.327814453E+03
 1.326414917E+03
 1.324055542E+03
 1.321894409E+03
 1.319675659E+03
 1.317583618E+03
 1.316167847E+03
 2.142024170E+03
 2.134812744E+03
 2.110331543E+03
 2.092572998E+03
 2.090032715E+03
 2.056426514E+03
 1.995798340E+03
 1.937996582E+03
 1.913346558E+03
 1.960200073E+03
 2.056889404E+03
 2.149373535E+03
 2.170855469E+03
 2.116221191E+03
 2.056629883E+03
 1.976712646E+03
 1.928808350E+03
 1.914210815E+03
 1.849222290E+03
 1.807962158E+03
 1.871904175E+03
 1.973261597E+03
 1.875693848E+03
 1.583587036E+03
 1.329113525E+03
 1.179788330E+03
 1.100846191E+03
 1.064229248E+03
 1.044686401E+03
 1.046418945E+03
 1.081797363E+03
 1.089369873E+03
 1.013803101E+03
 9.077934570E+02
 8.325471802E+02
 7.895804443E+02
 7.681853027E+02
 7.588484497E+02
 7.467354736E+02
 7.397648926E+02
 7.958972168E+02
 9.766422119E+02
 1.201229980E+03
 1.319372681E+03
 1.309051636E+03
 1.282879028E+03
 1.303171265E+03
 1.294155884E+03
 1.202124878E+03
 1.082165527E+03
 1.036343628E+03
 1.099619995E+03
 1.204656738E+03
 1.277244507E+03
 1.310523193E+03
 1.323959106E+03
 1.328596191E+03
 1.329027100E+03
 1.327431396E+03
 1.325027954E+03
 1.322950195E+03
 1.320791382E+03
 1.318489258E+03
 1.316912964E+03
 2.211101562E+03
 2.190414551E+03
 2.189385010E+03
 2.208488770E+03
 2.192611816E+03
 2.115925781E+03
 2.005602295E+03
 1.902264893E+03
 1.855867676E+03
 1.876807251E+03
 1.939831177E+03
 2.017830444E+03
 2.075576904E+03
 2.100611328E+03
 2.130944336E+03
 2.058614990E+03
 1.968791016E+03
 1.953962769E+03
 1.929292480E+03
 1.891494995E+03
 1.853728516E+03
 1.846344360E+03
 1.760065430E+03
 1.583100220E+03
 1.433662354E+03
 1.347145264E+03
 1.300613037E+03
 1.278187378E+03
 1.261764648E+03
 1.260713379E+03
 1.287523193E+03
 1.248631226E+03
 1.095791016E+03
 9.360743408E+02
 8.414954224E+02
 7.961792603E+02
 7.729685669E+02
 7.586659546E+02
 7.466098022E+02
 7.637980347E+02
 8.489249268E+02
 1.020746887E+03
 1.219579102E+03
 1.315337036E+03
 1.296278442E+03
 1.281953003E+03
 1.307676270E+03
 1.292289429E+03
 1.193853149E+03
 1.071489868E+03
 1.027806763E+03
 1.096819214E+03
 1.206303955E+03
 1.281023560E+03
 1.314403809E+03
 1.326703491E+03
 1.330007568E+03
 1.329549561E+03
 1.327585083E+03
 1.325176270E+03
 1.323529907E+03
 1.321625610E+03
 1.318946533E+03
 1.317240723E+03
 2.230195068E+03
 2.213273926E+03
 2.214567139E+03
 2.193725586E+03
 2.132493408E+03
 2.084761719E+03
 2.014824829E+03
 1.912830322E+03
 1.846026978E+03
 1.841315796E+03
 1.871349731E+03
 1.914113647E+03
 1.960107788E+03
 2.002058716E+03
 2.065051270E+03
 2.054863281E+03
 1.992819702E+03
 1.973848511E+03
 1.969093262E+03
 1.899683838E+03
 1.764703369E+03
 1.678578491E+03
 1.610374634E+03
 1.531414795E+03
 1.476002686E+03
 1.446508423E+03
 1.434093628E+03
 1.427260498E+03
 1.413070801E+03
 1.409581177E+03
 1.406211548E+03
 1.305756226E+03
 1.103923584E+03
 9.289468994E+02
 8.375891724E+02
 7.972160034E+02
 7.764048462E+02
 7.632409668E+02
 7.561561890E+02
 7.979486084E+02
 9.246640625E+02
 1.108832153E+03
 1.276428345E+03
 1.334216675E+03
 1.299024048E+03
 1.288411987E+03
 1.316754272E+03
 1.296562988E+03
 1.194654907E+03
 1.069570679E+03
 1.021154175E+03
 1.090739136E+03
 1.206652466E+03
 1.285750610E+03
 1.319193115E+03
 1.329978149E+03
 1.332177734E+03
 1.331260986E+03
 1.329285156E+03
 1.326851318E+03
 1.325592285E+03
 1.324225464E+03
 1.320568848E+03
 1.316626343E+03
 2.228477539E+03
 2.225914551E+03
 2.219630371E+03
 2.117099609E+03
 2.002013794E+03
 2.021299072E+03
 2.018514038E+03
 1.934482056E+03
 1.857229248E+03
 1.828712891E+03
 1.822926270E+03
 1.827653931E+03
 1.854510742E+03
 1.895267700E+03
 1.964900024E+03
 2.014045410E+03
 1.990823730E+03
 1.981429321E+03
 1.993932983E+03
 1.870079102E+03
 1.645600708E+03
 1.515502075E+03
 1.491504761E+03
 1.503982422E+03
 1.518403809E+03
 1.527880615E+03
 1.539569946E+03
 1.541690308E+03
 1.525834473E+03
 1.519271606E+03
 1.477296997E+03
 1.309568481E+03
 1.074377686E+03
 9.060272217E+02
 8.298267212E+02
 7.978609619E+02
 7.817922974E+02
 7.780055542E+02
 7.872695923E+02
 8.581462402E+02
 1.018955750E+03
 1.205109131E+03
 1.337048218E+03
 1.356466675E+03
 1.306798706E+03
 1.298614258E+03
 1.327043701E+03
 1.303223389E+03
 1.199755859E+03
 1.072433594E+03
 1.015879517E+03
 1.080065430E+03
 1.200150757E+03
 1.285744141E+03
 1.321676147E+03
 1.332248413E+03
 1.333980713E+03
 1.332968384E+03
 1.331222778E+03
 1.328884399E+03
 1.328041260E+03
 1.327304932E+03
 1.322509644E+03
 1.315283691E+03
 2.229833008E+03
 2.250181885E+03
 2.206233887E+03
 1.983640137E+03
 1.802118652E+03
 1.853353271E+03
 1.906934204E+03
 1.931421997E+03
 1.939282837E+03
 1.890782959E+03
 1.846748901E+03
 1.836060913E+03
 1.842739258E+03
 1.856090820E+03
 1.881843628E+03
 1.937166626E+03
 1.944213135E+03
 1.954493042E+03
 1.959217041E+03
 1.804703857E+03
 1.626140991E+03
 1.559839844E+03
 1.563885376E+03
 1.576499268E+03
 1.579430420E+03
 1.577402710E+03
 1.579584839E+03
 1.563422729E+03
 1.527106689E+03
 1.508584961E+03
 1.434672852E+03
 1.240195190E+03
 1.021173706E+03
 8.854188843E+02
 8.335383301E+02
 8.074895020E+02
 8.088082886E+02
 8.633885498E+02
 9.341133423E+02
 1.016976868E+03
 1.139708862E+03
 1.276493042E+03
 1.372950073E+03
 1.375680420E+03
 1.322226807E+03
 1.310053101E+03
 1.336506226E+03
 1.317859497E+03
 1.221284912E+03
 1.090852905E+03
 1.008476746E+03
 1.047484009E+03
 1.170399048E+03
 1.271761230E+03
 1.318043457E+03
 1.332391846E+03
 1.335273438E+03
 1.334772095E+03
 1.333642944E+03
 1.331486938E+03
 1.331029541E+03
 1.331306152E+03
 1.323369141E+03
 1.307069824E+03
 2.218128906E+03
 2.205306641E+03
 2.121052002E+03
 1.848864136E+03
 1.639093018E+03
 1.683269897E+03
 1.761309570E+03
 1.863173584E+03
 1.971385010E+03
 1.956614258E+03
 1.875556152E+03
 1.840132568E+03
 1.840882568E+03
 1.842726807E+03
 1.846162109E+03
 1.880716675E+03
 1.895864380E+03
 1.927336426E+03
 1.942554199E+03
 1.829193237E+03
 1.722859131E+03
 1.699848633E+03
 1.703428589E+03
 1.690433350E+03
 1.658965820E+03
 1.632895264E+03
 1.622517822E+03
 1.594218872E+03
 1.543904053E+03
 1.512086426E+03
 1.433778320E+03
 1.253051147E+03
 1.050912476E+03
 9.200038452E+02
 8.695663452E+02
 8.426555176E+02
 8.555302734E+02
 9.564644775E+02
 1.082964111E+03
 1.183635620E+03
 1.273839600E+03
 1.357813721E+03
 1.413594116E+03
 1.399213501E+03
 1.341374634E+03
 1.320500366E+03
 1.339242554E+03
 1.324656372E+03
 1.235406006E+03
 1.106371582E+03
 1.011281982E+03
 1.022728638E+03
 1.130092773E+03
 1.242734619E+03
 1.306609619E+03
 1.329850830E+03
 1.335653198E+03
 1.336141113E+03
 1.335668945E+03
 1.334033936E+03
 1.333894409E+03
 1.334800293E+03
 1.326375122E+03
 1.306101196E+03
 2.198362793E+03
 2.107574951E+03
 1.957649902E+03
 1.704634888E+03
 1.513981689E+03
 1.502891357E+03
 1.571562378E+03
 1.752597534E+03
 1.984413452E+03
 2.005255249E+03
 1.887551514E+03
 1.839318115E+03
 1.841294067E+03
 1.841389160E+03
 1.840855957E+03
 1.847617554E+03
 1.857732178E+03
 1.893716797E+03
 1.947262085E+03
 1.962970703E+03
 1.951560303E+03
 1.934452881E+03
 1.904280029E+03
 1.835856812E+03
 1.746621216E+03
 1.690348755E+03
 1.663876099E+03
 1.625604004E+03
 1.567205811E+03
 1.520114258E+03
 1.469228271E+03
 1.352747070E+03
 1.164924683E+03
 1.008985779E+03
 9.401679688E+02
 9.021694946E+02
 9.355100098E+02
 1.088825562E+03
 1.256039429E+03
 1.348476562E+03
 1.389060791E+03
 1.419386841E+03
 1.443075073E+03
 1.423671021E+03
 1.362095459E+03
 1.323090942E+03
 1.332400391E+03
 1.325115967E+03
 1.246038330E+03
 1.121729004E+03
 1.011499573E+03
 9.885459595E+02
 1.081757690E+03
 1.212241577E+03
 1.295722900E+03
 1.327963745E+03
 1.336551758E+03
 1.337940674E+03
 1.338065186E+03
 1.337005737E+03
 1.337000000E+03
 1.338576782E+03
 1.330118530E+03
 1.307317993E+03
 2.130553711E+03
 1.965940796E+03
 1.879118286E+03
 1.691378296E+03
 1.514637085E+03
 1.490606201E+03
 1.586896729E+03
 1.797003662E+03
 1.993037354E+03
 1.993998779E+03
 1.885339600E+03
 1.837682861E+03
 1.839389160E+03
 1.843630371E+03
 1.862204590E+03
 1.911308838E+03
 1.949232056E+03
 1.974356323E+03
 2.002058228E+03
 2.017749634E+03
 2.030458740E+03
 2.026393311E+03
 1.968484985E+03
 1.844818604E+03
 1.720560059E+03
 1.660495483E+03
 1.642132202E+03
 1.625146973E+03
 1.597001587E+03
 1.565638428E+03
 1.545226074E+03
 1.509612061E+03
 1.396425415E+03
 1.234183594E+03
 1.117944824E+03
 1.050178345E+03
 1.043403687E+03
 1.137791016E+03
 1.272841675E+03
 1.367527710E+03
 1.411656860E+03
 1.434001465E+03
 1.450776855E+03
 1.443344604E+03
 1.392196899E+03
 1.333770630E+03
 1.318330811E+03
 1.313114258E+03
 1.249971680E+03
 1.135277710E+03
 1.021472412E+03
 9.694091797E+02
 1.033182861E+03
 1.168182739E+03
 1.273605591E+03
 1.321001709E+03
 1.335618530E+03
 1.339042480E+03
 1.339913696E+03
 1.339519531E+03
 1.339814087E+03
 1.341161621E+03
 1.334492065E+03
 1.317187988E+03
 1.993569336E+03
 1.797487671E+03
 1.815506104E+03
 1.722021118E+03
 1.558854126E+03
 1.531838379E+03
 1.654830688E+03
 1.869033569E+03
 2.004210938E+03
 1.965229858E+03
 1.872757080E+03
 1.835952759E+03
 1.835900635E+03
 1.844459229E+03
 1.881989014E+03
 1.975958496E+03
 2.049084961E+03
 2.057812256E+03
 2.040768921E+03
 2.029753906E+03
 2.051004883E+03
 2.063874756E+03
 1.990627930E+03
 1.832869019E+03
 1.693905396E+03
 1.641773193E+03
 1.640132935E+03
 1.650774658E+03
 1.656792603E+03
 1.644642700E+03
 1.641353271E+03
 1.655337402E+03
 1.608700073E+03
 1.467106689E+03
 1.323083008E+03
 1.232052856E+03
 1.191588867E+03
 1.210873901E+03
 1.276270996E+03
 1.350189087E+03
 1.402218262E+03
 1.431848511E+03
 1.451378418E+03
 1.455328369E+03
 1.418784668E+03
 1.353043823E+03
 1.314012329E+03
 1.302446777E+03
 1.253586548E+03
 1.150645142E+03
 1.035774902E+03
 9.630579834E+02
 9.964941406E+02
 1.122087036E+03
 1.242786987E+03
 1.307870850E+03
 1.331666382E+03
 1.338689331E+03
 1.340912354E+03
 1.341285767E+03
 1.342034668E+03
 1.342774414E+03
 1.336326660E+03
 1.323314941E+03
 1.727719238E+03
 1.575418579E+03
 1.807111816E+03
 1.834154663E+03
 1.657517212E+03
 1.651548828E+03
 1.789549805E+03
 1.949403931E+03
 1.985726562E+03
 1.918911011E+03
 1.858942261E+03
 1.829936279E+03
 1.829364136E+03
 1.841877808E+03
 1.890826172E+03
 2.037483643E+03
 2.141370361E+03
 2.095707031E+03
 1.997622192E+03
 1.936317261E+03
 1.971890259E+03
 2.017846802E+03
 1.947234497E+03
 1.803366577E+03
 1.700494141E+03
 1.680711914E+03
 1.712874756E+03
 1.762136719E+03
 1.797917480E+03
 1.791827393E+03
 1.768937622E+03
 1.776283691E+03
 1.786444214E+03
 1.705716797E+03
 1.577474243E+03
 1.497927856E+03
 1.415377808E+03
 1.305508545E+03
 1.251735596E+03
 1.288160034E+03
 1.359663940E+03
 1.415740479E+03
 1.446980225E+03
 1.461998779E+03
 1.448557861E+03
 1.389183472E+03
 1.322385864E+03
 1.293194458E+03
 1.256355225E+03
 1.167086792E+03
 1.056027222E+03
 9.688005371E+02
 9.665604858E+02
 1.072703003E+03
 1.207284546E+03
 1.291876709E+03
 1.326392944E+03
 1.337742432E+03
 1.341390381E+03
 1.342442383E+03
 1.343573608E+03
 1.341337036E+03
 1.332528198E+03
 1.323782593E+03
 1.569644775E+03
 1.498730713E+03
 1.817683716E+03
 1.931209961E+03
 1.795575928E+03
 1.786068848E+03
 1.859975342E+03
 1.928710083E+03
 1.925712158E+03
 1.872355469E+03
 1.835617676E+03
 1.818674683E+03
 1.821149048E+03
 1.833296143E+03
 1.869570679E+03
 1.992396729E+03
 2.081520508E+03
 2.023688232E+03
 1.924409302E+03
 1.884714478E+03
 1.937377075E+03
 1.993454346E+03
 1.947798462E+03
 1.846734375E+03
 1.787222046E+03
 1.798850586E+03
 1.852059937E+03
 1.910657349E+03
 1.934035767E+03
 1.894508057E+03
 1.836902466E+03
 1.814181519E+03
 1.810052734E+03
 1.767505493E+03
 1.709382568E+03
 1.688732666E+03
 1.640708618E+03
 1.495707520E+03
 1.327359131E+03
 1.249934570E+03
 1.275943115E+03
 1.347489990E+03
 1.412616577E+03
 1.452586792E+03
 1.461051147E+03
 1.423384521E+03
 1.354656616E+03
 1.303883301E+03
 1.260794067E+03
 1.180333374E+03
 1.073516846E+03
 9.812774048E+02
 9.573306885E+02
 1.036531860E+03
 1.166236328E+03
 1.264156250E+03
 1.311731079E+03
 1.330597900E+03
 1.337611328E+03
 1.340314819E+03
 1.342240723E+03
 1.338396606E+03
 1.327855957E+03
 1.321095825E+03
 1.508016357E+03
 1.505907837E+03
 1.854505371E+03
 2.025024048E+03
 1.945010254E+03
 1.917580811E+03
 1.884332764E+03
 1.853009033E+03
 1.844933105E+03
 1.832775513E+03
 1.815203125E+03
 1.807344482E+03
 1.815893066E+03
 1.825504150E+03
 1.838075928E+03
 1.905713745E+03
 1.958630127E+03
 1.902885864E+03
 1.841116699E+03
 1.857920166E+03
 1.932039062E+03
 1.986391113E+03
 1.968166138E+03
 1.923014771E+03
 1.908212769E+03
 1.943317261E+03
 2.002701416E+03
 2.047621094E+03
 2.033785156E+03
 1.945101807E+03
 1.853345093E+03
 1.795090088E+03
 1.753533203E+03
 1.745325562E+03
 1.780718628E+03
 1.841239502E+03
 1.851833618E+03
 1.695163330E+03
 1.416427368E+03
 1.213710449E+03
 1.181393311E+03
 1.265117798E+03
 1.368432373E+03
 1.437219116E+03
 1.470066895E+03
 1.459942749E+03
 1.394693970E+03
 1.319835938E+03
 1.264252319E+03
 1.189716553E+03
 1.088245239E+03
 9.932526855E+02
 9.491342773E+02
 1.003598816E+03
 1.128246704E+03
 1.236413818E+03
 1.295435547E+03
 1.321580322E+03
 1.331993530E+03
 1.336624023E+03
 1.339299438E+03
 1.333559448E+03
 1.322177979E+03
 1.317766113E+03
 1.757661987E+03
 1.787551147E+03
 1.992780273E+03
 2.105957031E+03
 2.083408447E+03
 1.984263306E+03
 1.836247681E+03
 1.788046997E+03
 1.810769531E+03
 1.814721436E+03
 1.806805542E+03
 1.812762451E+03
 1.827072510E+03
 1.832251831E+03
 1.825003418E+03
 1.824197632E+03
 1.834099365E+03
 1.833542480E+03
 1.845288574E+03
 1.891985474E+03
 1.968077881E+03
 2.012979858E+03
 1.988784424E+03
 1.948947754E+03
 1.931227905E+03
 1.928927246E+03
 1.900148926E+03
 1.830145508E+03
 1.732014893E+03
 1.620978882E+03
 1.553140747E+03
 1.529664062E+03
 1.500891968E+03
 1.522672729E+03
 1.632463867E+03
 1.758312012E+03
 1.833963257E+03
 1.752709595E+03
 1.480462646E+03
 1.198760376E+03
 1.079334839E+03
 1.136332886E+03
 1.274288330E+03
 1.391094727E+03
 1.456451904E+03
 1.474015747E+03
 1.433166748E+03
 1.352275269E+03
 1.272437744E+03
 1.187018555E+03
 1.087785522E+03
 9.989336548E+02
 9.564029541E+02
 9.990452271E+02
 1.107243408E+03
 1.209510986E+03
 1.272047607E+03
 1.303538208E+03
 1.317739380E+03
 1.324938232E+03
 1.328478394E+03
 1.325276123E+03
 1.317846558E+03
 1.313828979E+03
 1.958819458E+03
 1.959628662E+03
 2.054812500E+03
 2.099605957E+03
 2.097906982E+03
 1.989167236E+03
 1.797455933E+03
 1.740328003E+03
 1.778572266E+03
 1.799871460E+03
 1.803623901E+03
 1.819754395E+03
 1.839296875E+03
 1.838284180E+03
 1.814188965E+03
 1.782253784E+03
 1.776623779E+03
 1.817646118E+03
 1.888220947E+03
 1.955824951E+03
 2.029730103E+03
 2.066771240E+03
 2.014371094E+03
 1.926692993E+03
 1.857949951E+03
 1.798204956E+03
 1.696352295E+03
 1.548188599E+03
 1.397063110E+03
 1.281157715E+03
 1.238737183E+03
 1.243643921E+03
 1.236891846E+03
 1.276376343E+03
 1.410271362E+03
 1.562862915E+03
 1.672193604E+03
 1.657807617E+03
 1.458981934E+03
 1.189855835E+03
 1.020144470E+03
 1.025207031E+03
 1.154885376E+03
 1.304255981E+03
 1.410833740E+03
 1.463070068E+03
 1.451746094E+03
 1.381922363E+03
 1.290139526E+03
 1.193311035E+03
 1.094147217E+03
 1.010319458E+03
 9.719307861E+02
 1.008691895E+03
 1.100391235E+03
 1.189194580E+03
 1.248265503E+03
 1.281550781E+03
 1.298337280E+03
 1.307589722E+03
 1.312248535E+03
 1.310964111E+03
 1.306748413E+03
 1.303703003E+03
 2.067721924E+03
 2.018757812E+03
 2.002126953E+03
 2.000019897E+03
 2.009804199E+03
 1.918231079E+03
 1.760445435E+03
 1.713405640E+03
 1.757715942E+03
 1.795429443E+03
 1.810363281E+03
 1.830285767E+03
 1.845860718E+03
 1.833735718E+03
 1.798742676E+03
 1.766796631E+03
 1.791471069E+03
 1.886604248E+03
 1.981885498E+03
 2.048950439E+03
 2.121665283E+03
 2.128809326E+03
 1.998370239E+03
 1.807413574E+03
 1.641514160E+03
 1.499027222E+03
 1.340167114E+03
 1.165126343E+03
 1.022455627E+03
 9.441675415E+02
 9.296459351E+02
 9.498334351E+02
 9.674194336E+02
 1.008494629E+03
 1.107116089E+03
 1.232955322E+03
 1.357165527E+03
 1.431248901E+03
 1.363312744E+03
 1.158419067E+03
 9.616669922E+02
 9.173709717E+02
 1.038053101E+03
 1.219473389E+03
 1.366532227E+03
 1.450224609E+03
 1.467859375E+03
 1.416092529E+03
 1.319099976E+03
 1.211638428E+03
 1.111206421E+03
 1.034825684E+03
 1.002966370E+03
 1.030873779E+03
 1.101249634E+03
 1.172982178E+03
 1.224827148E+03
 1.256784546E+03
 1.274582886E+03
 1.284853638E+03
 1.290270142E+03
 1.292034058E+03
 1.290507568E+03
 1.286616333E+03
 1.974487061E+03
 1.963634277E+03
 1.920421631E+03
 1.892352661E+03
 1.874654541E+03
 1.811467773E+03
 1.725272095E+03
 1.704926270E+03
 1.749885376E+03
 1.796656738E+03
 1.820398315E+03
 1.838181396E+03
 1.842521362E+03
 1.818339355E+03
 1.781601562E+03
 1.760407593E+03
 1.817097412E+03
 1.964099243E+03
 2.080335938E+03
 2.112005615E+03
 2.133773926E+03
 2.126145020E+03
 1.984774048E+03
 1.730780396E+03
 1.477692627E+03
 1.279981323E+03
 1.122027710E+03
 9.880808716E+02
 8.895480957E+02
 8.354041748E+02
 8.199285889E+02
 8.256117554E+02
 8.335635376E+02
 8.537094727E+02
 9.034876099E+02
 9.774114990E+02
 1.068093994E+03
 1.150229248E+03
 1.154841675E+03
 1.044015625E+03
 8.979736328E+02
 8.458659058E+02
 9.439044189E+02
 1.132902710E+03
 1.309218994E+03
 1.422363403E+03
 1.465855347E+03
 1.434254028E+03
 1.346616089E+03
 1.242688843E+03
 1.147739380E+03
 1.078688965E+03
 1.049352417E+03
 1.066819824E+03
 1.116063721E+03
 1.167615356E+03
 1.206553955E+03
 1.232140503E+03
 1.247662598E+03
 1.257558838E+03
 1.263749268E+03
 1.266830688E+03
 1.266627319E+03
 1.263729614E+03
 1.788964844E+03
 1.886408936E+03
 1.855810425E+03
 1.818203613E+03
 1.782411865E+03
 1.739313477E+03
 1.707160034E+03
 1.708633911E+03
 1.749432129E+03
 1.798215698E+03
 1.827687134E+03
 1.842644775E+03
 1.838201538E+03
 1.814027588E+03
 1.792847534E+03
 1.793044434E+03
 1.873128906E+03
 2.041178589E+03
 2.152548340E+03
 2.148345215E+03
 2.123543945E+03
 2.085098877E+03
 1.920937134E+03
 1.623155273E+03
 1.317604736E+03
 1.092572266E+03
 9.501224976E+02
 8.621518555E+02
 8.086100464E+02
 7.768614502E+02
 7.594883423E+02
 7.511771240E+02
 7.477492065E+02
 7.485319214E+02
 7.583446045E+02
 7.868623657E+02
 8.396200562E+02
 9.079595947E+02
 9.511792603E+02
 9.161935425E+02
 8.293980103E+02
 7.891553345E+02
 8.754641113E+02
 1.069595337E+03
 1.267433228E+03
 1.402089600E+03
 1.463338623E+03
 1.446983154E+03
 1.369838501E+03
 1.273328735E+03
 1.186593384E+03
 1.125826294E+03
 1.098564819E+03
 1.105015259E+03
 1.133280029E+03
 1.164897583E+03
 1.190562744E+03
 1.209134277E+03
 1.221942261E+03
 1.231356812E+03
 1.238495728E+03
 1.242924316E+03
 1.243964478E+03
 1.242416260E+03
 1.539513916E+03
 1.781520386E+03
 1.847499146E+03
 1.828964722E+03
 1.805463867E+03
 1.775708252E+03
 1.745328369E+03
 1.737083252E+03
 1.760104736E+03
 1.798428833E+03
 1.826023193E+03
 1.834720825E+03
 1.841034302E+03
 1.868494263E+03
 1.908931274E+03
 1.942844727E+03
 2.002693970E+03
 2.103909424E+03
 2.166117432E+03
 2.133709473E+03
 2.037301270E+03
 1.902704712E+03
 1.701153564E+03
 1.433731812E+03
 1.179188721E+03
 9.970999756E+02
 8.862090454E+02
 8.205748291E+02
 7.819155884E+02
 7.600904541E+02
 7.486418457E+02
 7.429462280E+02
 7.405395508E+02
 7.415559082E+02
 7.480839233E+02
 7.605368042E+02
 7.781254272E+02
 8.030256348E+02
 8.244839478E+02
 8.133618164E+02
 7.732149048E+02
 7.659559937E+02
 8.704242554E+02
 1.074647705E+03
 1.274786377E+03
 1.407217529E+03
 1.465845947E+03
 1.450990723E+03
 1.381335205E+03
 1.296599365E+03
 1.221861450E+03
 1.168182129E+03
 1.138957153E+03
 1.132864380E+03
 1.143225342E+03
 1.159640015E+03
 1.175675537E+03
 1.190075684E+03
 1.202455933E+03
 1.213441162E+03
 1.222884521E+03
 1.229460571E+03
 1.232918823E+03
 1.234251465E+03
 1.307779053E+03
 1.623645142E+03
 1.815684570E+03
 1.841690674E+03
 1.809698730E+03
 1.786500244E+03
 1.765796753E+03
 1.758305542E+03
 1.771623169E+03
 1.794103027E+03
 1.805974243E+03
 1.799277344E+03
 1.802327026E+03
 1.853573608E+03
 1.930614014E+03
 1.985933838E+03
 2.030197021E+03
 2.082850342E+03
 2.116272217E+03
 2.076720947E+03
 1.918526733E+03
 1.671332275E+03
 1.404168213E+03
 1.164640015E+03
 9.867595825E+02
 8.751616211E+02
 8.121720581E+02
 7.770893555E+02
 7.573394165E+02
 7.466283569E+02
 7.411561890E+02
 7.381556396E+02
 7.367000732E+02
 7.378471680E+02