TITLE     = "fluent19.2.0  build-id: 10236"
VARIABLES = "Temperature"
DATASETAUXDATA Common.DensityVar="55"
DATASETAUXDATA Common.PressureVar="4"
DATASETAUXDATA Common.TemperatureVar="19"
DATASETAUXDATA Common.TurbulentDynamicViscosityVar="59"
DATASETAUXDATA Common.UVar="7"
DATASETAUXDATA Common.VectorVarsAreVelocity="TRUE"
DATASETAUXDATA Common.ViscosityVar="58"
DATASETAUXDATA Common.VVar="10"
DATASETAUXDATA Common.WVar="13"
ZONE T="Rectangular zone"
 STRANDID=0, SOLUTIONTIME=0.0025
 I=64, J=32, K=32, ZONETYPE=Ordered
 DATAPACKING=POINT
 DT=(SINGLE )
 8.100800781E+02
 1.041997192E+03
 1.130064331E+03
 1.153686523E+03
 1.154541992E+03
 1.139450562E+03
 1.113877197E+03
 1.100869751E+03
 1.137022827E+03
 1.201105103E+03
 1.205563965E+03
 1.122062866E+03
 9.929077148E+02
 8.717804565E+02
 8.020064697E+02
 7.741088867E+02
 7.636103516E+02
 7.595989990E+02
 7.578188477E+02
 7.570490723E+02
 7.569224854E+02
 7.571295166E+02
 7.574055786E+02
 7.578472290E+02
 7.585028687E+02
 7.589410400E+02
 7.590385742E+02
 7.590057373E+02
 7.587330322E+02
 7.589406738E+02
 7.601270142E+02
 7.603274536E+02
 7.585842285E+02
 7.563715210E+02
 7.527493286E+02
 7.434838257E+02
 7.280574951E+02
 7.131823120E+02
 7.038675537E+02
 6.989940186E+02
 7.050718994E+02
 7.695097046E+02
 9.153615723E+02
 1.062769531E+03
 1.140878784E+03
 1.159545898E+03
 1.157180420E+03
 1.162378540E+03
 1.181236450E+03
 1.202372803E+03
 1.201893188E+03
 1.174852905E+03
 1.143995361E+03
 1.125454834E+03
 1.122132446E+03
 1.134812134E+03
 1.159943604E+03
 1.190110107E+03
 1.218068481E+03
 1.240076782E+03
 1.255576538E+03
 1.265792480E+03
 1.272606445E+03
 1.277632324E+03
 9.184706421E+02
 1.225331055E+03
 1.346401733E+03
 1.394874146E+03
 1.419155762E+03
 1.427873901E+03
 1.425598022E+03
 1.422300293E+03
 1.431885742E+03
 1.456133179E+03
 1.449317261E+03
 1.369841553E+03
 1.241315796E+03
 1.117271240E+03
 1.027363770E+03
 9.701557617E+02
 9.048998413E+02
 8.281229248E+02
 7.838355713E+02
 7.654926758E+02
 7.579806519E+02
 7.543114624E+02
 7.521333618E+02
 7.510250244E+02
 7.507917480E+02
 7.508292847E+02
 7.506840820E+02
 7.501629028E+02
 7.493029785E+02
 7.489786987E+02
 7.490941162E+02
 7.477997437E+02
 7.452846680E+02
 7.437184448E+02
 7.419011841E+02
 7.348477173E+02
 7.219097900E+02
 7.091097412E+02
 7.008433228E+02
 6.973956909E+02
 7.192840576E+02
 8.278013306E+02
 1.000992859E+03
 1.129412598E+03
 1.180650757E+03
 1.194000854E+03
 1.201435547E+03
 1.207348877E+03
 1.202366089E+03
 1.183167114E+03
 1.154445435E+03
 1.123927246E+03
 1.108974976E+03
 1.120853516E+03
 1.148860107E+03
 1.179284546E+03
 1.208291748E+03
 1.235398560E+03
 1.258379761E+03
 1.275307495E+03
 1.286395752E+03
 1.292998047E+03
 1.296835327E+03
 1.299302856E+03
 1.080878784E+03
 1.434703857E+03
 1.538359375E+03
 1.579440308E+03
 1.603139526E+03
 1.618089600E+03
 1.632541138E+03
 1.650548462E+03
 1.664257080E+03
 1.665720459E+03
 1.648659424E+03
 1.591897095E+03
 1.495365845E+03
 1.392060303E+03
 1.302419189E+03
 1.227078979E+03
 1.117702637E+03
 9.886763916E+02
 9.069508667E+02
 8.545048218E+02
 8.086396484E+02
 7.763203735E+02
 7.590391235E+02
 7.509046631E+02
 7.473881226E+02
 7.459971924E+02
 7.454263306E+02
 7.449929810E+02
 7.444474487E+02
 7.441143799E+02
 7.430893555E+02
 7.399267578E+02
 7.362291260E+02
 7.346431885E+02
 7.337478638E+02
 7.288306274E+02
 7.191444092E+02
 7.087669678E+02
 7.007658691E+02
 6.981229858E+02
 7.345186768E+02
 8.792548218E+02
 1.078123901E+03
 1.194627686E+03
 1.218989502E+03
 1.219065186E+03
 1.225006714E+03
 1.220976074E+03
 1.190719360E+03
 1.143781128E+03
 1.103537598E+03
 1.084530762E+03
 1.095691284E+03
 1.136086548E+03
 1.186831909E+03
 1.228752197E+03
 1.258402710E+03
 1.279962769E+03
 1.295585327E+03
 1.305777466E+03
 1.311587158E+03
 1.314324219E+03
 1.315224976E+03
 1.315259521E+03
 1.358449463E+03
 1.702145874E+03
 1.733357300E+03
 1.740283936E+03
 1.751020386E+03
 1.763741943E+03
 1.777015381E+03
 1.788917236E+03
 1.794629272E+03
 1.797617188E+03
 1.800600220E+03
 1.786331299E+03
 1.740635132E+03
 1.683449951E+03
 1.624848877E+03
 1.553086182E+03
 1.433038452E+03
 1.321797607E+03
 1.264541870E+03
 1.154982056E+03
 9.891281738E+02
 8.609301147E+02
 7.940441284E+02
 7.645311890E+02
 7.522470703E+02
 7.473950195E+02
 7.463886108E+02
 7.477223511E+02
 7.494183350E+02
 7.491851807E+02
 7.457404175E+02
 7.401666870E+02
 7.352669678E+02
 7.328805542E+02
 7.318039551E+02
 7.293161011E+02
 7.244746094E+02
 7.167255249E+02
 7.068767090E+02
 7.035197144E+02
 7.590433350E+02
 9.467801514E+02
 1.173784180E+03
 1.280565308E+03
 1.283094971E+03
 1.268276855E+03
 1.251438110E+03
 1.205347534E+03
 1.136561401E+03
 1.076077637E+03
 1.054282349E+03
 1.081375732E+03
 1.137127930E+03
 1.199713379E+03
 1.253291260E+03
 1.287127686E+03
 1.303691895E+03
 1.311201782E+03
 1.315125366E+03
 1.317304810E+03
 1.318315918E+03
 1.318302979E+03
 1.317660034E+03
 1.316766968E+03
 1.590779785E+03
 1.820164795E+03
 1.791855835E+03
 1.762645508E+03
 1.756851196E+03
 1.765804810E+03
 1.780945923E+03
 1.794314819E+03
 1.799593506E+03
 1.802289551E+03
 1.809074707E+03
 1.809005371E+03
 1.792551025E+03
 1.778130615E+03
 1.766500244E+03
 1.727264038E+03
 1.637617065E+03
 1.585730103E+03
 1.594090210E+03
 1.475406982E+03
 1.209555176E+03
 9.777283325E+02
 8.522219238E+02
 7.953522339E+02
 7.721002808E+02
 7.655505981E+02
 7.683683472E+02
 7.744404297E+02
 7.804817505E+02
 7.836091309E+02
 7.785830078E+02
 7.654143066E+02
 7.511882324E+02
 7.412942505E+02
 7.355909424E+02
 7.326843872E+02
 7.307049561E+02
 7.242348022E+02
 7.152655029E+02
 7.362094116E+02
 8.409168701E+02
 1.045566040E+03
 1.239416016E+03
 1.308218872E+03
 1.295221680E+03
 1.280581177E+03
 1.252492676E+03
 1.177259399E+03
 1.091222290E+03
 1.049416626E+03
 1.068139771E+03
 1.130001343E+03
 1.201702148E+03
 1.259851929E+03
 1.297419922E+03
 1.316040894E+03
 1.322291138E+03
 1.323099854E+03
 1.322288086E+03
 1.321163086E+03
 1.320047729E+03
 1.318750732E+03
 1.317426025E+03
 1.316169800E+03
 1.776582642E+03
 1.833295044E+03
 1.743303345E+03
 1.697840454E+03
 1.691599976E+03
 1.710227417E+03
 1.734342529E+03
 1.749692749E+03
 1.749071167E+03
 1.739781982E+03
 1.732178345E+03
 1.721325195E+03
 1.713578613E+03
 1.737502319E+03
 1.775194580E+03
 1.769447144E+03
 1.742036621E+03
 1.808541626E+03
 1.932078369E+03
 1.815201172E+03
 1.438373535E+03
 1.103965942E+03
 9.199782715E+02
 8.353023071E+02
 8.011516724E+02
 7.958074341E+02
 8.065283813E+02
 8.197061157E+02
 8.313577271E+02
 8.381136475E+02
 8.289665527E+02
 8.032696533E+02
 7.750906982E+02
 7.544586182E+02
 7.421109619E+02
 7.378373413E+02
 7.379167480E+02
 7.315238647E+02
 7.245424805E+02
 7.858877563E+02
 9.550346680E+02
 1.157187256E+03
 1.289055908E+03
 1.312051514E+03
 1.291466553E+03
 1.283330444E+03
 1.241756958E+03
 1.139446289E+03
 1.052294312E+03
 1.051604614E+03
 1.120135376E+03
 1.206781738E+03
 1.274974976E+03
 1.312014038E+03
 1.325355591E+03
 1.327613525E+03
 1.326198486E+03
 1.323942749E+03
 1.321724121E+03
 1.319752930E+03
 1.318106445E+03
 1.316476440E+03
 1.315084839E+03
 1.313920776E+03
 1.911100342E+03
 1.933695435E+03
 1.799430664E+03
 1.736661255E+03
 1.751764893E+03
 1.819303101E+03
 1.873139404E+03
 1.879579834E+03
 1.851670898E+03
 1.817068237E+03
 1.785715332E+03
 1.748914185E+03
 1.726989502E+03
 1.760592651E+03
 1.810207642E+03
 1.795382568E+03
 1.751688354E+03
 1.801845947E+03
 1.945149048E+03
 1.872837524E+03
 1.515855469E+03
 1.187986572E+03
 1.007225403E+03
 9.244613647E+02
 8.967012939E+02
 9.077939453E+02
 9.345016479E+02
 9.556412964E+02
 9.787770996E+02
 9.900346680E+02
 9.523751831E+02
 8.792827148E+02
 8.157651367E+02
 7.760021973E+02
 7.539243164E+02
 7.458347168E+02
 7.430793457E+02
 7.334944458E+02
 7.299255981E+02
 8.235991211E+02
 1.040424438E+03
 1.241670532E+03
 1.324069702E+03
 1.308771606E+03
 1.286783813E+03
 1.283981445E+03
 1.231129883E+03
 1.122206421E+03
 1.050934082E+03
 1.081728027E+03
 1.170379517E+03
 1.247773560E+03
 1.295509155E+03
 1.319243408E+03
 1.327916870E+03
 1.329426270E+03
 1.328162354E+03
 1.325994995E+03
 1.323610229E+03
 1.321372559E+03
 1.319451782E+03
 1.317519287E+03
 1.315933105E+03
 1.314738770E+03
 2.041220337E+03
 2.029388672E+03
 1.871299927E+03
 1.793557617E+03
 1.828390381E+03
 1.933911865E+03
 2.004604248E+03
 1.989883545E+03
 1.929679688E+03
 1.875446167E+03
 1.832090820E+03
 1.781380981E+03
 1.752967285E+03
 1.801570068E+03
 1.871920654E+03
 1.854405151E+03
 1.793855225E+03
 1.829290161E+03
 1.962896240E+03
 1.891187012E+03
 1.556767700E+03
 1.267539673E+03
 1.119198608E+03
 1.057709961E+03
 1.044783936E+03
 1.067992188E+03
 1.102415283E+03
 1.122656738E+03
 1.146574585E+03
 1.163281006E+03
 1.104098877E+03
 9.756740723E+02
 8.634419556E+02
 7.995177002E+02
 7.670404053E+02
 7.538214111E+02
 7.469140625E+02
 7.373334351E+02
 7.492020264E+02
 8.733179932E+02
 1.109724243E+03
 1.301393555E+03
 1.351291138E+03
 1.306784790E+03
 1.281382690E+03
 1.283398071E+03
 1.222934326E+03
 1.106354736E+03
 1.043083740E+03
 1.093819824E+03
 1.199511597E+03
 1.278029175E+03
 1.313681519E+03
 1.326681763E+03
 1.330770142E+03
 1.330985718E+03
 1.329431519E+03
 1.327204468E+03
 1.324749146E+03
 1.322435669E+03
 1.320482544E+03
 1.318490967E+03
 1.316843262E+03
 1.315699829E+03
 2.165622803E+03
 2.130960449E+03
 1.964186401E+03
 1.899662964E+03
 1.953756714E+03
 2.065249268E+03
 2.100343994E+03
 2.025329346E+03
 1.934278687E+03
 1.887766968E+03
 1.856928589E+03
 1.814291992E+03
 1.801025269E+03
 1.884359497E+03
 1.976043335E+03
 1.951880005E+03
 1.879923340E+03
 1.900503662E+03
 1.963673828E+03
 1.854720459E+03
 1.597628662E+03
 1.390893311E+03
 1.292228271E+03
 1.260585938E+03
 1.263667969E+03
 1.290662231E+03
 1.319698975E+03
 1.326481079E+03
 1.344474365E+03
 1.357234985E+03
 1.250954468E+03
 1.049481934E+03
 8.920285034E+02
 8.126538696E+02
 7.761915283E+02
 7.580690918E+02
 7.461411133E+02
 7.459420166E+02
 8.007569580E+02
 9.509942627E+02
 1.159315186E+03
 1.318116699E+03
 1.347859619E+03
 1.299231689E+03
 1.282349609E+03
 1.281917236E+03
 1.211641235E+03
 1.091836914E+03
 1.033256470E+03
 1.091136841E+03
 1.202026489E+03
 1.281950195E+03
 1.317187500E+03
 1.329264893E+03
 1.332272827E+03
 1.331578857E+03
 1.329527344E+03
 1.327202637E+03
 1.324832520E+03
 1.322769897E+03
 1.321131836E+03
 1.319355347E+03
 1.317826782E+03
 1.316926514E+03
 2.198726074E+03
 2.147595703E+03
 2.023575317E+03
 1.984718628E+03
 2.011799805E+03
 2.086450684E+03
 2.092258057E+03
 1.981474854E+03
 1.884019775E+03
 1.859114258E+03
 1.851629517E+03
 1.829451782E+03
 1.826555176E+03
 1.926020264E+03
 2.044196045E+03
 2.022947388E+03
 1.934017578E+03
 1.961171143E+03
 1.991616455E+03
 1.815877197E+03
 1.579573730E+03
 1.446194702E+03
 1.403182251E+03
 1.403863403E+03
 1.417668335E+03
 1.443635498E+03
 1.463945923E+03
 1.454855591E+03
 1.460210938E+03
 1.452960449E+03
 1.307428955E+03
 1.070653564E+03
 8.972253418E+02
 8.158312988E+02
 7.804113770E+02
 7.604669189E+02
 7.480610352E+02
 7.561475220E+02
 8.413540039E+02
 1.023463074E+03
 1.223235840E+03
 1.349382324E+03
 1.354948975E+03
 1.300124390E+03
 1.287347412E+03
 1.285555908E+03
 1.210782471E+03
 1.088666748E+03
 1.026386108E+03
 1.085067505E+03
 1.203087280E+03
 1.287819580E+03
 1.323013428E+03
 1.333286621E+03
 1.334855225E+03
 1.333419189E+03
 1.331079468E+03
 1.328708008E+03
 1.326416992E+03
 1.324508301E+03
 1.323275391E+03
 1.321677490E+03
 1.319860107E+03
 1.318902710E+03
 2.183156738E+03
 2.129850586E+03
 2.071534912E+03
 2.047740723E+03
 2.021774658E+03
 2.054889404E+03
 2.043287720E+03
 1.911399536E+03
 1.825116577E+03
 1.825978149E+03
 1.841187134E+03
 1.840148682E+03
 1.843222656E+03
 1.949804199E+03
 2.085590820E+03
 2.066585693E+03
 1.971090942E+03
 2.012395752E+03
 2.006700806E+03
 1.773738281E+03
 1.563575684E+03
 1.488898315E+03
 1.491814209E+03
 1.517540039E+03
 1.535756836E+03
 1.558397949E+03
 1.570331299E+03
 1.547730591E+03
 1.542050537E+03
 1.506920166E+03
 1.320644409E+03
 1.065658203E+03
 8.929613037E+02
 8.167784424E+02
 7.841486206E+02
 7.637485962E+02
 7.574782104E+02
 7.829335938E+02
 8.985297241E+02
 1.100564697E+03
 1.284629761E+03
 1.379923096E+03
 1.363483276E+03
 1.304376099E+03
 1.295264038E+03
 1.291702881E+03
 1.215483643E+03
 1.092002197E+03
 1.022151855E+03
 1.075637695E+03
 1.198284302E+03
 1.289601196E+03
 1.327044434E+03
 1.336626831E+03
 1.337206665E+03
 1.335288452E+03
 1.332843262E+03
 1.330537964E+03
 1.328392212E+03
 1.326657593E+03
 1.325870850E+03
 1.324475098E+03
 1.322206909E+03
 1.320940063E+03
 2.173162109E+03
 2.135601074E+03
 2.107479980E+03
 2.068290283E+03
 1.994142944E+03
 2.013166016E+03
 1.998234741E+03
 1.883955078E+03
 1.822574951E+03
 1.829405640E+03
 1.843427246E+03
 1.841711548E+03
 1.832775024E+03
 1.897327026E+03
 1.999829102E+03
 1.989537964E+03
 1.959654175E+03
 2.016240356E+03
 1.979343018E+03
 1.768277466E+03
 1.571083130E+03
 1.496747925E+03
 1.506518799E+03
 1.538783203E+03
 1.556809448E+03
 1.577690796E+03
 1.587546631E+03
 1.564404663E+03
 1.554567383E+03
 1.493365723E+03
 1.293031616E+03
 1.054187012E+03
 8.968816528E+02
 8.282121582E+02
 7.946753540E+02
 7.818007202E+02
 8.216116333E+02
 9.053994141E+02
 1.024374146E+03
 1.180664307E+03
 1.323956787E+03
 1.397703491E+03
 1.373965576E+03
 1.315700928E+03
 1.305659058E+03
 1.302951538E+03
 1.233963379E+03
 1.110613647E+03
 1.018503296E+03
 1.048893311E+03
 1.172793579E+03
 1.277909546E+03
 1.324716431E+03
 1.337512207E+03
 1.338833496E+03
 1.337136597E+03
 1.334905640E+03
 1.332874756E+03
 1.331052979E+03
 1.329498535E+03
 1.329522217E+03
 1.328017700E+03
 1.324105103E+03
 1.321549927E+03
 2.163938232E+03
 2.145810791E+03
 2.110374268E+03
 2.056246582E+03
 1.976772949E+03
 1.993852539E+03
 1.977720703E+03
 1.891883911E+03
 1.848688843E+03
 1.840184326E+03
 1.844583984E+03
 1.843729614E+03
 1.831607544E+03
 1.864614746E+03
 1.925271362E+03
 1.929110474E+03
 1.969404297E+03
 2.047454712E+03
 1.970651123E+03
 1.773921265E+03
 1.633414551E+03
 1.578085938E+03
 1.565703003E+03
 1.571241943E+03
 1.579458130E+03
 1.593646606E+03
 1.598242432E+03
 1.575679688E+03
 1.563967529E+03
 1.505804932E+03
 1.326937744E+03
 1.104806519E+03
 9.432184448E+02
 8.659641724E+02
 8.243027344E+02
 8.212833862E+02
 9.108190918E+02
 1.051998291E+03
 1.182314209E+03
 1.296062012E+03
 1.384790283E+03
 1.425399414E+03
 1.389974609E+03
 1.327160034E+03
 1.310907959E+03
 1.306043945E+03
 1.242294434E+03
 1.124255005E+03
 1.023750610E+03
 1.029314941E+03
 1.137598022E+03
 1.252275757E+03
 1.315383301E+03
 1.336253540E+03
 1.339914551E+03
 1.338799072E+03
 1.336837646E+03
 1.335100464E+03
 1.333625122E+03
 1.332339966E+03
 1.332780518E+03
 1.331584839E+03
 1.327170288E+03
 1.323746216E+03
 2.162633301E+03
 2.169597168E+03
 2.096599609E+03
 2.029892090E+03
 1.983796387E+03
 1.985470215E+03
 1.983219849E+03
 1.949317261E+03
 1.890809937E+03
 1.850537964E+03
 1.846837036E+03
 1.848379517E+03
 1.835962524E+03
 1.830301636E+03
 1.852373779E+03
 1.896037842E+03
 2.014566650E+03
 2.088356201E+03
 1.970703735E+03
 1.821098145E+03
 1.769017212E+03
 1.729458984E+03
 1.650878418E+03
 1.605988647E+03
 1.599875244E+03
 1.601481445E+03
 1.601643921E+03
 1.582645386E+03
 1.565879028E+03
 1.544292969E+03
 1.431251221E+03
 1.216125244E+03
 1.026316040E+03
 9.274960938E+02
 8.689949951E+02
 8.961229248E+02
 1.055689209E+03
 1.240649414E+03
 1.354097534E+03
 1.407575439E+03
 1.438558105E+03
 1.449840454E+03
 1.408833862E+03
 1.337922607E+03
 1.307530762E+03
 1.299258301E+03
 1.245582520E+03
 1.137796875E+03
 1.026048950E+03
 9.994979858E+02
 1.094164429E+03
 1.225600098E+03
 1.306873657E+03
 1.335680908E+03
 1.341516602E+03
 1.340894775E+03
 1.339141602E+03
 1.337690918E+03
 1.336562378E+03
 1.335496826E+03
 1.336273804E+03
 1.335354858E+03
 1.330678955E+03
 1.326618408E+03
 2.115200195E+03
 2.143383545E+03
 2.076988770E+03
 2.012215210E+03
 1.984660156E+03
 1.992556396E+03
 2.018687744E+03
 2.024736572E+03
 1.948403198E+03
 1.862393066E+03
 1.842763794E+03
 1.846054199E+03
 1.834582153E+03
 1.829201172E+03
 1.890248535E+03
 1.984061401E+03
 2.055465576E+03
 2.055647217E+03
 1.946114624E+03
 1.859380737E+03
 1.867269531E+03
 1.809856445E+03
 1.667845947E+03
 1.590225952E+03
 1.583848511E+03
 1.589526001E+03
 1.595824707E+03
 1.589836060E+03
 1.582813232E+03
 1.603308228E+03
 1.586096313E+03
 1.428840454E+03
 1.208579834E+03
 1.060499023E+03
 9.691165161E+02
 9.696726074E+02
 1.109998413E+03
 1.284403809E+03
 1.390948608E+03
 1.434581177E+03
 1.453036011E+03
 1.459915405E+03
 1.430588867E+03
 1.360468628E+03
 1.306429565E+03
 1.283180542E+03
 1.236077393E+03
 1.141854492E+03
 1.033127930E+03
 9.808505249E+02
 1.047861816E+03
 1.184849121E+03
 1.287620117E+03
 1.330547485E+03
 1.341643921E+03
 1.342565918E+03
 1.341296143E+03
 1.340104004E+03
 1.339173218E+03
 1.338336182E+03
 1.338892334E+03
 1.338209595E+03
 1.334447266E+03
 1.330967041E+03
 2.057055664E+03
 2.101302979E+03
 2.058894287E+03
 2.013618408E+03
 2.000911377E+03
 2.007962280E+03
 2.045856079E+03
 2.066233887E+03
 1.978260010E+03
 1.869171753E+03
 1.838599609E+03
 1.842242676E+03
 1.831553223E+03
 1.829447754E+03
 1.928593018E+03
 2.069396240E+03
 2.091026855E+03
 2.004127441E+03
 1.897211548E+03
 1.875102417E+03
 1.931714111E+03
 1.863014038E+03
 1.683438232E+03
 1.588605225E+03
 1.584041504E+03
 1.596452393E+03
 1.612248291E+03
 1.622164551E+03
 1.631363525E+03
 1.683046997E+03
 1.732839478E+03
 1.635571411E+03
 1.413157227E+03
 1.225547363E+03
 1.103352417E+03
 1.067389160E+03
 1.150819824E+03
 1.281784180E+03
 1.378944336E+03
 1.430248779E+03
 1.454066284E+03
 1.464276245E+03
 1.447230957E+03
 1.384945801E+03
 1.315262817E+03
 1.274068848E+03
 1.228638184E+03
 1.145901245E+03
 1.042104248E+03
 9.730849609E+02
 1.011918640E+03
 1.141611084E+03
 1.260130005E+03
 1.319752808E+03
 1.339020752E+03
 1.342923096E+03
 1.342714355E+03
 1.341941772E+03
 1.341200317E+03
 1.340517822E+03
 1.340870972E+03
 1.340143799E+03
 1.337001831E+03
 1.334072510E+03
 2.000721924E+03
 2.010203369E+03
 2.023177490E+03
 2.047400391E+03
 2.060163086E+03
 2.070053711E+03
 2.049645264E+03
 2.012819946E+03
 1.946580688E+03
 1.861372925E+03
 1.834023926E+03
 1.838058838E+03
 1.826974121E+03
 1.823546143E+03
 1.961431152E+03
 2.128713867E+03
 2.067413818E+03
 1.897723389E+03
 1.812525757E+03
 1.855110840E+03
 1.936703613E+03
 1.870848511E+03
 1.714154541E+03
 1.633530151E+03
 1.631975342E+03
 1.654564819E+03
 1.684513062E+03
 1.718502563E+03
 1.755645996E+03
 1.810618042E+03
 1.869681763E+03
 1.836298340E+03
 1.654583252E+03
 1.454871460E+03
 1.316804932E+03
 1.193989624E+03
 1.135746460E+03
 1.190240234E+03
 1.298639038E+03
 1.391678345E+03
 1.443224731E+03
 1.464163940E+03
 1.462362915E+03
 1.418694824E+03
 1.340380615E+03
 1.275354858E+03
 1.223906006E+03
 1.149736206E+03
 1.053256958E+03
 9.728039551E+02
 9.806696777E+02
 1.096244629E+03
 1.229738403E+03
 1.307144165E+03
 1.335509644E+03
 1.342941772E+03
 1.343963989E+03
 1.343431152E+03
 1.342580811E+03
 1.341809448E+03
 1.341593506E+03
 1.340511841E+03
 1.337562744E+03
 1.334869385E+03
 1.974585571E+03
 1.962552612E+03
 1.981984253E+03
 2.033680420E+03
 2.097579590E+03
 2.122735596E+03
 2.045565674E+03
 1.935685425E+03
 1.877507690E+03
 1.841167969E+03
 1.832633301E+03
 1.839417114E+03
 1.826110718E+03
 1.809955200E+03
 1.921394287E+03
 2.063813721E+03
 1.997356201E+03
 1.844088867E+03
 1.788966553E+03
 1.850932983E+03
 1.946800659E+03
 1.925499023E+03
 1.828712646E+03
 1.779273438E+03
 1.784027344E+03
 1.811832642E+03
 1.838086060E+03
 1.859874756E+03
 1.889540894E+03
 1.923370972E+03
 1.940129517E+03
 1.906550781E+03
 1.792381470E+03
 1.654275269E+03
 1.536262573E+03
 1.387427002E+03
 1.231614502E+03
 1.160501953E+03
 1.196485107E+03
 1.291462402E+03
 1.383837280E+03
 1.442256592E+03
 1.464264282E+03
 1.442478882E+03
 1.375272949E+03
 1.298697021E+03
 1.233815186E+03
 1.158143921E+03
 1.063540405E+03
 9.799205933E+02
 9.701902466E+02
 1.063637573E+03
 1.193794434E+03
 1.283225464E+03
 1.322930786E+03
 1.336834717E+03
 1.340995605E+03
 1.341739136E+03
 1.341235596E+03
 1.340490723E+03
 1.339677490E+03
 1.338005615E+03
 1.335022705E+03
 1.332148193E+03
 1.973894897E+03
 1.940233032E+03
 1.940715698E+03
 1.994801270E+03
 2.110962646E+03
 2.155648682E+03
 2.015399170E+03
 1.840278442E+03
 1.809785522E+03
 1.824578247E+03
 1.833768677E+03
 1.844743164E+03
 1.826635254E+03
 1.792996948E+03
 1.851472778E+03
 1.946320312E+03
 1.904061035E+03
 1.816268188E+03
 1.807254883E+03
 1.867695923E+03
 1.958514893E+03
 1.995472412E+03
 1.972956665E+03
 1.949270142E+03
 1.954396484E+03
 1.981767578E+03
 1.992986328E+03
 1.990740112E+03
 2.002912720E+03
 2.003752319E+03
 1.959379272E+03
 1.912961792E+03
 1.882718750E+03
 1.835575562E+03
 1.754506714E+03
 1.590284668E+03
 1.346239868E+03
 1.144802124E+03
 1.091642212E+03
 1.176824097E+03
 1.310604858E+03
 1.412066650E+03
 1.461573486E+03
 1.465347534E+03
 1.415471313E+03
 1.329444214E+03
 1.247307007E+03
 1.166161011E+03
 1.072310181E+03
 9.869695435E+02
 9.621029663E+02
 1.035395142E+03
 1.161067261E+03
 1.259225952E+03
 1.308651855E+03
 1.328832031E+03
 1.336308350E+03
 1.338459106E+03
 1.338367065E+03
 1.337676270E+03
 1.336029907E+03
 1.333798706E+03
 1.330771362E+03
 1.327433960E+03
 2.031027954E+03
 2.028392944E+03
 1.984118042E+03
 1.957428345E+03
 2.034792358E+03
 2.066291748E+03
 1.939702148E+03
 1.804854004E+03
 1.799322998E+03
 1.828935181E+03
 1.844726807E+03
 1.853729004E+03
 1.825467285E+03
 1.775997192E+03
 1.777251709E+03
 1.828325073E+03
 1.848130371E+03
 1.860617310E+03
 1.903642822E+03
 1.920458862E+03
 1.930551025E+03
 1.952698364E+03
 1.939018677E+03
 1.887429810E+03
 1.843634888E+03
 1.824895996E+03
 1.807797485E+03
 1.803200562E+03
 1.822174927E+03
 1.822106567E+03
 1.776220825E+03
 1.744909302E+03
 1.787746094E+03
 1.836673584E+03
 1.802085938E+03
 1.667825684E+03
 1.435876343E+03
 1.176731323E+03
 1.022132324E+03
 1.041114380E+03
 1.183814087E+03
 1.337540161E+03
 1.435127441E+03
 1.471032349E+03
 1.445892334E+03
 1.367856201E+03
 1.272671631E+03
 1.177381470E+03
 1.080419800E+03
 9.995345459E+02
 9.748715820E+02
 1.033764771E+03
 1.141794556E+03
 1.234272217E+03
 1.286653809E+03
 1.311619507E+03
 1.322943970E+03
 1.327323486E+03
 1.328368652E+03
 1.328081787E+03
 1.326008301E+03
 1.323520996E+03
 1.320097900E+03
 1.315548340E+03
 2.048841064E+03
 2.070123779E+03
 1.993172852E+03
 1.920611450E+03
 1.950503174E+03
 1.952973999E+03
 1.845616943E+03
 1.763431274E+03
 1.791192993E+03
 1.831195679E+03
 1.852257690E+03
 1.856647461E+03
 1.819082153E+03
 1.763460449E+03
 1.748897583E+03
 1.793108154E+03
 1.852959473E+03
 1.922926758E+03
 1.997524780E+03
 1.982830933E+03
 1.901175171E+03
 1.847152710E+03
 1.795188843E+03
 1.706678223E+03
 1.617394531E+03
 1.554846558E+03
 1.510021851E+03
 1.502519897E+03
 1.530000977E+03
 1.536995972E+03
 1.503672729E+03
 1.494413940E+03
 1.576570190E+03
 1.685384277E+03
 1.704067993E+03
 1.613825806E+03
 1.428967041E+03
 1.185543091E+03
 9.901834717E+02
 9.449392700E+02
 1.054062744E+03
 1.226117432E+03
 1.370552979E+03
 1.450426758E+03
 1.457743896E+03
 1.397127930E+03
 1.299938354E+03
 1.195412109E+03
 1.095578735E+03
 1.018368469E+03
 9.961397095E+02
 1.045727539E+03
 1.135046875E+03
 1.214217407E+03
 1.263546265E+03
 1.290222778E+03
 1.304159180E+03
 1.310580933E+03
 1.312899902E+03
 1.313322266E+03
 1.311466553E+03
 1.308976562E+03
 1.305383057E+03
 1.300235596E+03
 2.007378662E+03
 2.085898193E+03
 1.967583862E+03
 1.880022339E+03
 1.844577271E+03
 1.799562744E+03
 1.746286011E+03
 1.739522095E+03
 1.787176147E+03
 1.831363892E+03
 1.850105713E+03
 1.839048584E+03
 1.796303589E+03
 1.752496460E+03
 1.758800415E+03
 1.853278442E+03
 1.959162598E+03
 2.036223999E+03
 2.091704834E+03
 2.000247925E+03
 1.790401855E+03
 1.618830566E+03
 1.491695068E+03
 1.362832275E+03
 1.240213745E+03
 1.145198608E+03
 1.091777222E+03
 1.094992798E+03
 1.130995483E+03
 1.150954956E+03
 1.148443237E+03
 1.168282349E+03
 1.259796753E+03
 1.387250977E+03
 1.454328857E+03
 1.435880371E+03
 1.337411377E+03
 1.153379639E+03
 9.547391357E+02
 8.600217896E+02
 9.322611084E+02
 1.119337158E+03
 1.308139282E+03
 1.429212280E+03
 1.467620483E+03
 1.427232788E+03
 1.334193848E+03
 1.225907227E+03
 1.127010620E+03
 1.055799316E+03
 1.033125854E+03
 1.066668335E+03
 1.133052368E+03
 1.196736206E+03
 1.240180786E+03
 1.266057373E+03
 1.281000488E+03
 1.288650513E+03
 1.292004028E+03
 1.293101929E+03
 1.291961426E+03
 1.289734131E+03
 1.285997803E+03
 1.280556030E+03
 1.770842773E+03
 2.002665771E+03
 1.898810791E+03
 1.830362793E+03
 1.798968506E+03
 1.754524536E+03
 1.716467041E+03
 1.723133179E+03
 1.771284180E+03
 1.813993164E+03
 1.827781860E+03
 1.813437256E+03
 1.782234497E+03
 1.760466064E+03
 1.788443481E+03
 1.896307373E+03
 1.993102905E+03
 2.030871704E+03
 2.065488037E+03
 2.001412354E+03
 1.774423950E+03
 1.509169922E+03
 1.303141357E+03
 1.154475098E+03
 1.043894409E+03
 9.633366699E+02
 9.140114136E+02
 9.014742432E+02
 9.117382812E+02
 9.187254028E+02
 9.180415039E+02
 9.319681396E+02
 9.926210327E+02
 1.087310547E+03
 1.154860352E+03
 1.171025879E+03
 1.134842163E+03
 1.030513184E+03
 8.919002075E+02
 8.084521484E+02
 8.575386963E+02
 1.033324219E+03
 1.241128540E+03
 1.393533813E+03
 1.461287231E+03
 1.443287964E+03
 1.362132202E+03
 1.259854614E+03
 1.167497803E+03
 1.102712036E+03
 1.078892822E+03
 1.098334473E+03
 1.143120483E+03
 1.188284058E+03
 1.220771729E+03
 1.241518188E+03
 1.254562378E+03
 1.261999634E+03
 1.266005981E+03
 1.268180786E+03
 1.268368896E+03
 1.267223877E+03
 1.264617065E+03
 1.260706055E+03
 1.524114258E+03
 1.917430054E+03
 1.854175293E+03
 1.808962158E+03
 1.783727295E+03
 1.742589722E+03
 1.711557861E+03
 1.719854614E+03
 1.760393677E+03
 1.796190552E+03
 1.804616821E+03
 1.796425049E+03
 1.793085571E+03
 1.802333252E+03
 1.846907837E+03
 1.946217407E+03
 2.006358276E+03
 1.999714844E+03
 2.015437256E+03
 1.970678589E+03
 1.737314331E+03
 1.408205200E+03
 1.146754761E+03
 9.891303711E+02
 8.969330444E+02
 8.383942261E+02
 8.002251587E+02
 7.774261475E+02
 7.653328247E+02
 7.591000977E+02
 7.563168335E+02
 7.607257690E+02
 7.890217285E+02
 8.441625366E+02
 8.970059204E+02
 9.297997437E+02
 9.371174927E+02
 8.987505493E+02
 8.220742798E+02
 7.658369141E+02
 8.081032715E+02
 9.766699219E+02
 1.195350586E+03
 1.367453247E+03
 1.455678223E+03
 1.454920532E+03
 1.385210571E+03
 1.291527710E+03
 1.207948364E+03
 1.150296265E+03
 1.125253052E+03
 1.130980591E+03
 1.155125488E+03
 1.182240479E+03
 1.203357300E+03
 1.218266479E+03
 1.228894165E+03
 1.235945923E+03
 1.240718384E+03
 1.244238525E+03
 1.246058716E+03
 1.246289307E+03
 1.245208008E+03
 1.243304443E+03
 1.306799194E+03
 1.841782593E+03
 1.905565186E+03
 1.859710815E+03
 1.826339233E+03
 1.783514648E+03
 1.749441162E+03
 1.744934937E+03
 1.766295166E+03
 1.784780273E+03
 1.793688232E+03
 1.840057129E+03
 1.911725464E+03
 1.943013062E+03
 1.969196777E+03
 1.990039185E+03
 1.960882080E+03
 1.937409302E+03
 1.932482056E+03
 1.844687012E+03
 1.600184204E+03
 1.291307617E+03
 1.056152954E+03
 9.193186646E+02
 8.440641479E+02
 8.001574707E+02
 7.732070312E+02
 7.573522339E+02
 7.491884766E+02
 7.451781616E+02
 7.433274536E+02
 7.453325806E+02
 7.560090942E+02
 7.748817139E+02
 7.930057983E+02
 8.072783203E+02
 8.168320923E+02
 8.049956665E+02
 7.682288208E+02
 7.458953857E+02
 8.154756470E+02
 1.000511475E+03
 1.216134399E+03
 1.377496582E+03
 1.459214111E+03
 1.459426270E+03
 1.396917480E+03
 1.313579712E+03
 1.240044434E+03
 1.187716553E+03
 1.159401978E+03
 1.152978027E+03
 1.161047974E+03
 1.174353638E+03
 1.186656616E+03
 1.197369141E+03
 1.207100464E+03
 1.215597168E+03
 1.222915894E+03
 1.229187500E+03
 1.233489990E+03
 1.236024536E+03
 1.237446045E+03
 1.238132935E+03
 1.148005005E+03
 1.779132812E+03
 1.919183105E+03
 1.860516113E+03
 1.806876587E+03
 1.763674805E+03
 1.742065430E+03
 1.742845215E+03
 1.754857666E+03
 1.759820801E+03
 1.762289185E+03
 1.819027588E+03
 1.913277100E+03
 1.956034912E+03
 1.973607178E+03
 1.973876099E+03
 1.936127563E+03
 1.915303101E+03
 1.850672729E+03
 1.648415527E+03
 1.355628540E+03
 1.092917236E+03
 9.253383179E+02
 8.354240112E+02
 7.891490479E+02
 7.649260254E+02
 7.514524536E+02
 7.437818604E+02
 7.397875977E+02
 7.377677612E+02
 7.367755127E+02
 7.377617798E+02
 7.418100586E+02
 7.465765991E+02