TITLE     = "fluent19.2.0  build-id: 10236"
VARIABLES = "Temperature"
DATASETAUXDATA Common.DensityVar="55"
DATASETAUXDATA Common.PressureVar="4"
DATASETAUXDATA Common.TemperatureVar="19"
DATASETAUXDATA Common.TurbulentDynamicViscosityVar="59"
DATASETAUXDATA Common.UVar="7"
DATASETAUXDATA Common.VectorVarsAreVelocity="TRUE"
DATASETAUXDATA Common.ViscosityVar="58"
DATASETAUXDATA Common.VVar="10"
DATASETAUXDATA Common.WVar="13"
ZONE T="Rectangular zone"
 STRANDID=0, SOLUTIONTIME=0.002
 I=64, J=32, K=32, ZONETYPE=Ordered
 DATAPACKING=POINT
 DT=(SINGLE )
 7.704147949E+02
 7.761950073E+02
 7.895179443E+02
 8.412564697E+02
 9.888339844E+02
 1.193233765E+03
 1.294689453E+03
 1.223712402E+03
 1.080069458E+03
 9.494088745E+02
 8.516577148E+02
 7.944685059E+02
 7.686271973E+02
 7.594683838E+02
 7.565354614E+02
 7.556723633E+02
 7.555263672E+02
 7.556602783E+02
 7.561135864E+02
 7.568724365E+02
 7.575832520E+02
 7.579895020E+02
 7.583915405E+02
 7.591399536E+02
 7.596884155E+02
 7.591058960E+02
 7.582387695E+02
 7.598793335E+02
 7.642424927E+02
 7.665869141E+02
 7.624725952E+02
 7.531064453E+02
 7.410411377E+02
 7.260798950E+02
 7.107290039E+02
 7.001235352E+02
 6.952229614E+02
 6.940496826E+02
 7.003562012E+02
 7.420531616E+02
 8.504874878E+02
 9.896131592E+02
 1.100348267E+03
 1.178031372E+03
 1.233390137E+03
 1.261758545E+03
 1.257390869E+03
 1.228656250E+03
 1.195727783E+03
 1.173257935E+03
 1.164802002E+03
 1.168776733E+03
 1.181062622E+03
 1.197159546E+03
 1.213911011E+03
 1.229177856E+03
 1.241521118E+03
 1.251003906E+03
 1.258166626E+03
 1.263773438E+03
 1.268362427E+03
 1.272288452E+03
 1.275557983E+03
 1.278125732E+03
 7.735155029E+02
 8.348716431E+02
 9.228782959E+02
 9.958887329E+02
 1.165093506E+03
 1.370706421E+03
 1.450164307E+03
 1.395539185E+03
 1.283256470E+03
 1.184722168E+03
 1.084684937E+03
 9.648486328E+02
 8.635827637E+02
 7.963795166E+02
 7.656880493E+02
 7.549048462E+02
 7.510713501E+02
 7.495970459E+02
 7.491071777E+02
 7.491786499E+02
 7.494059448E+02
 7.495218506E+02
 7.498126221E+02
 7.504975586E+02
 7.507558594E+02
 7.498292847E+02
 7.489347534E+02
 7.499044800E+02
 7.521752319E+02
 7.527391357E+02
 7.495827026E+02
 7.425733032E+02
 7.318223877E+02
 7.184901733E+02
 7.060112915E+02
 6.977387695E+02
 6.939665527E+02
 6.991307983E+02
 7.473796387E+02
 8.604770508E+02
 1.004769958E+03
 1.127494507E+03
 1.201248413E+03
 1.236579102E+03
 1.247498413E+03
 1.237613159E+03
 1.213649780E+03
 1.185233765E+03
 1.163416626E+03
 1.158582275E+03
 1.171644165E+03
 1.194862793E+03
 1.219470703E+03
 1.240432983E+03
 1.256607056E+03
 1.268473022E+03
 1.276726562E+03
 1.282512085E+03
 1.286715088E+03
 1.289760254E+03
 1.292052368E+03
 1.293846436E+03
 1.295128540E+03
 1.295891235E+03
 7.962622070E+02
 9.907443237E+02
 1.138164307E+03
 1.226203369E+03
 1.381465942E+03
 1.544826904E+03
 1.587547363E+03
 1.535809937E+03
 1.456177490E+03
 1.404050781E+03
 1.332026001E+03
 1.189552979E+03
 1.034217773E+03
 9.136411133E+02
 8.340323486E+02
 7.830235596E+02
 7.584785767E+02
 7.495606079E+02
 7.460336914E+02
 7.445052490E+02
 7.438089600E+02
 7.434084473E+02
 7.436148682E+02
 7.447087402E+02
 7.453352661E+02
 7.443007812E+02
 7.428747559E+02
 7.425545044E+02
 7.425897827E+02
 7.414029541E+02
 7.388174438E+02
 7.340660400E+02
 7.255799561E+02
 7.147778931E+02
 7.048074951E+02
 6.974917603E+02
 6.945440063E+02
 7.120452271E+02
 8.056835327E+02
 9.796057739E+02
 1.143588257E+03
 1.235604736E+03
 1.263400513E+03
 1.256940430E+03
 1.232839966E+03
 1.199578613E+03
 1.170745361E+03
 1.154451172E+03
 1.151661255E+03
 1.165427612E+03
 1.194367065E+03
 1.229015869E+03
 1.259064697E+03
 1.280449829E+03
 1.294073975E+03
 1.302151245E+03
 1.306619141E+03
 1.309043091E+03
 1.310372437E+03
 1.311000122E+03
 1.311183716E+03
 1.311074341E+03
 1.310582764E+03
 1.309737793E+03
 8.697681885E+02
 1.290958984E+03
 1.478222534E+03
 1.526157715E+03
 1.612746826E+03
 1.694721069E+03
 1.705316528E+03
 1.666020020E+03
 1.611927490E+03
 1.582885864E+03
 1.541364502E+03
 1.434025146E+03
 1.326700684E+03
 1.216931641E+03
 1.041989380E+03
 8.742140503E+02
 7.919566040E+02
 7.625359497E+02
 7.508682251E+02
 7.454744873E+02
 7.429769897E+02
 7.417687988E+02
 7.428526611E+02
 7.462587280E+02
 7.485468750E+02
 7.471950684E+02
 7.431278076E+02
 7.389655762E+02
 7.359445190E+02
 7.341809692E+02
 7.330507202E+02
 7.309124756E+02
 7.262822876E+02
 7.189072266E+02
 7.096039429E+02
 7.007012329E+02
 6.987223511E+02
 7.430784912E+02
 8.996834106E+02
 1.122014771E+03
 1.270947876E+03
 1.304438965E+03
 1.273907593E+03
 1.224521362E+03
 1.175629028E+03
 1.140551758E+03
 1.132352417E+03
 1.151025024E+03
 1.181513428E+03
 1.214777832E+03
 1.249293823E+03
 1.279674927E+03
 1.300429321E+03
 1.311930054E+03
 1.317525024E+03
 1.319895386E+03
 1.320610474E+03
 1.320401611E+03
 1.319729492E+03
 1.318744751E+03
 1.317626831E+03
 1.316371704E+03
 1.315066284E+03
 1.313712280E+03
 1.037792969E+03
 1.555874878E+03
 1.701214966E+03
 1.706381958E+03
 1.735419678E+03
 1.753442993E+03
 1.740488525E+03
 1.713470093E+03
 1.676792358E+03
 1.645834839E+03
 1.603171509E+03
 1.538265015E+03
 1.516590210E+03
 1.490492554E+03
 1.301985962E+03
 1.025437988E+03
 8.546858521E+02
 7.890220947E+02
 7.626528320E+02
 7.516981201E+02
 7.498351440E+02
 7.525138550E+02
 7.607777710E+02
 7.769906616E+02
 7.925467529E+02
 7.953385010E+02
 7.833258057E+02
 7.640043335E+02
 7.473613281E+02
 7.374965820E+02
 7.329847412E+02
 7.309811401E+02
 7.292578735E+02
 7.255587769E+02
 7.169567261E+02
 7.070479126E+02
 7.280783081E+02
 8.319727173E+02
 1.028477295E+03
 1.228006592E+03
 1.323403687E+03
 1.311844727E+03
 1.251950073E+03
 1.184159912E+03
 1.132343872E+03
 1.117298584E+03
 1.142928467E+03
 1.189617798E+03
 1.234593262E+03
 1.269264893E+03
 1.294960205E+03
 1.312309814E+03
 1.321337158E+03
 1.324731323E+03
 1.325315796E+03
 1.324697021E+03
 1.323613525E+03
 1.322324463E+03
 1.320962524E+03
 1.319518433E+03
 1.318092896E+03
 1.316592529E+03
 1.315152100E+03
 1.313722412E+03
 1.303050659E+03
 1.786396973E+03
 1.815065796E+03
 1.768649292E+03
 1.746880859E+03
 1.730255249E+03
 1.720715088E+03
 1.712151978E+03
 1.684946533E+03
 1.624434204E+03
 1.556442871E+03
 1.538399292E+03
 1.643286499E+03
 1.773250610E+03
 1.600263794E+03
 1.198983521E+03
 9.290053711E+02
 8.208171997E+02
 7.769100952E+02
 7.604965820E+02
 7.627041626E+02
 7.748842163E+02
 7.992169800E+02
 8.382061768E+02
 8.710914917E+02
 8.767565308E+02
 8.498386841E+02
 8.059871216E+02
 7.684157715E+02
 7.461727905E+02
 7.359791870E+02
 7.331153564E+02
 7.339610596E+02
 7.336491699E+02
 7.248369141E+02
 7.146212769E+02
 7.758010864E+02
 9.584639893E+02
 1.174909546E+03
 1.311616211E+03
 1.337698853E+03
 1.290614380E+03
 1.216946167E+03
 1.140599365E+03
 1.094521606E+03
 1.112575073E+03
 1.178665161E+03
 1.247872803E+03
 1.296137573E+03
 1.321266724E+03
 1.330368042E+03
 1.331461426E+03
 1.329605103E+03
 1.327191162E+03
 1.324937378E+03
 1.322926514E+03
 1.321169678E+03
 1.319595337E+03
 1.318157349E+03
 1.316771118E+03
 1.315479492E+03
 1.314117432E+03
 1.312898682E+03
 1.311664917E+03
 1.562961426E+03
 1.784427368E+03
 1.797290894E+03
 1.779121704E+03
 1.765460938E+03
 1.754802124E+03
 1.751417358E+03
 1.750137085E+03
 1.733144775E+03
 1.672852417E+03
 1.585725708E+03
 1.537361694E+03
 1.599644775E+03
 1.767274902E+03
 1.728777100E+03
 1.366434814E+03
 1.026838745E+03
 8.616863403E+02
 7.982863770E+02
 7.825954590E+02
 8.165233154E+02
 8.870964355E+02
 9.580086670E+02
 1.020825378E+03
 1.069385010E+03
 1.091133179E+03
 1.045598755E+03
 9.345444336E+02
 8.303834229E+02
 7.711760864E+02
 7.463272095E+02
 7.382175293E+02
 7.375339355E+02
 7.369606323E+02
 7.275817871E+02
 7.307883911E+02
 8.494116821E+02
 1.086450928E+03
 1.284491943E+03
 1.364166260E+03
 1.344613892E+03
 1.276032104E+03
 1.196248169E+03
 1.120482666E+03
 1.089923950E+03
 1.136029663E+03
 1.219850952E+03
 1.284571777E+03
 1.317898926E+03
 1.331366455E+03
 1.335145142E+03
 1.334776367E+03
 1.332769653E+03
 1.330231201E+03
 1.327693848E+03
 1.325288696E+03
 1.323092285E+03
 1.321076660E+03
 1.319244141E+03
 1.317555664E+03
 1.315993164E+03
 1.314492798E+03
 1.313233643E+03
 1.311970947E+03
 1.740503784E+03
 1.779393677E+03
 1.802518066E+03
 1.799523315E+03
 1.776627808E+03
 1.765155151E+03
 1.763572876E+03
 1.767623535E+03
 1.760517334E+03
 1.708596436E+03
 1.620765625E+03
 1.558828125E+03
 1.584791504E+03
 1.742967651E+03
 1.790695801E+03
 1.512834473E+03
 1.139884399E+03
 9.140537720E+02
 8.455886230E+02
 8.572772827E+02
 9.258287964E+02
 1.030638184E+03
 1.127898315E+03
 1.203789307E+03
 1.255791504E+03
 1.284983032E+03
 1.241257690E+03
 1.089789795E+03
 9.166432495E+02
 8.073657837E+02
 7.608413696E+02
 7.453607178E+02
 7.417691040E+02
 7.387456055E+02
 7.296609497E+02
 7.528153687E+02
 9.174760132E+02
 1.183400879E+03
 1.362780884E+03
 1.402319946E+03
 1.349261963E+03
 1.262235352E+03
 1.177329590E+03
 1.102554810E+03
 1.080067993E+03
 1.143175171E+03
 1.241741333E+03
 1.308406494E+03
 1.334252319E+03
 1.339940674E+03
 1.339430542E+03
 1.337403076E+03
 1.334892090E+03
 1.332137085E+03
 1.329378174E+03
 1.326737427E+03
 1.324318726E+03
 1.322100586E+03
 1.320093506E+03
 1.318292236E+03
 1.316641479E+03
 1.315108154E+03
 1.313893555E+03
 1.312689697E+03
 1.783661987E+03
 1.832337524E+03
 1.890731079E+03
 1.821836060E+03
 1.763336060E+03
 1.738841309E+03
 1.733832031E+03
 1.740527466E+03
 1.743294067E+03
 1.714623047E+03
 1.657307129E+03
 1.601926514E+03
 1.595571777E+03
 1.722322144E+03
 1.853452393E+03
 1.656180054E+03
 1.234496216E+03
 9.620722046E+02
 9.303954468E+02
 1.022867126E+03
 1.130230225E+03
 1.232020630E+03
 1.322028931E+03
 1.390799805E+03
 1.427919067E+03
 1.461883179E+03
 1.429526855E+03
 1.235681641E+03
 9.922020874E+02
 8.374505615E+02
 7.731676636E+02
 7.528556519E+02
 7.451874390E+02
 7.365249023E+02
 7.319683228E+02
 8.013345947E+02
 1.004735291E+03
 1.242942993E+03
 1.382695435E+03
 1.403377441E+03
 1.339702271E+03
 1.246992676E+03
 1.160935059E+03
 1.085647461E+03
 1.066201172E+03
 1.137038330E+03
 1.241401001E+03
 1.310073730E+03
 1.336142822E+03
 1.341556885E+03
 1.340572021E+03
 1.338021240E+03
 1.335095093E+03
 1.332110596E+03
 1.329304443E+03
 1.326718384E+03
 1.324430298E+03
 1.322351807E+03
 1.320508789E+03
 1.318900269E+03
 1.317390625E+03
 1.316037476E+03
 1.314997925E+03
 1.313965820E+03
 1.806491455E+03
 1.871087891E+03
 1.929884155E+03
 1.847310669E+03
 1.762943970E+03
 1.723012207E+03
 1.721106201E+03
 1.735704102E+03
 1.742455688E+03
 1.724447632E+03
 1.692243530E+03
 1.663094604E+03
 1.653194946E+03
 1.726196411E+03
 1.847979248E+03
 1.724559570E+03
 1.339881714E+03
 1.078611816E+03
 1.099190918E+03
 1.228794312E+03
 1.309504150E+03
 1.362689575E+03
 1.433026245E+03
 1.503314941E+03
 1.532354248E+03
 1.550992920E+03
 1.525507568E+03
 1.337058472E+03
 1.063192017E+03
 8.718204346E+02
 7.878714600E+02
 7.606102905E+02
 7.489179688E+02
 7.357095337E+02
 7.321560669E+02
 8.163856812E+02
 1.033186035E+03
 1.263844360E+03
 1.389954224E+03
 1.401930542E+03
 1.331478027E+03
 1.237986694E+03
 1.156035645E+03
 1.080451538E+03
 1.055294067E+03
 1.125909424E+03
 1.238384399E+03
 1.313840698E+03
 1.341114746E+03
 1.345568115E+03
 1.343421265E+03
 1.340064453E+03
 1.336683228E+03
 1.333466919E+03
 1.330558472E+03
 1.327946899E+03
 1.325709595E+03
 1.323727905E+03
 1.322021240E+03
 1.320600220E+03
 1.319276855E+03
 1.318102173E+03
 1.317228149E+03
 1.316327515E+03
 1.838046753E+03
 1.901398315E+03
 1.947359863E+03
 1.871335083E+03
 1.772645752E+03
 1.715704712E+03
 1.719203735E+03
 1.744524658E+03
 1.753620850E+03
 1.741830933E+03
 1.732207275E+03
 1.732223755E+03
 1.723639526E+03
 1.741276855E+03
 1.839969849E+03
 1.770989380E+03
 1.432952759E+03
 1.213464966E+03
 1.289927734E+03
 1.429415649E+03
 1.456882202E+03
 1.457952148E+03
 1.517867676E+03
 1.594402100E+03
 1.615211792E+03
 1.613925781E+03
 1.592027222E+03
 1.417245972E+03
 1.127376831E+03
 9.069188843E+02
 8.038607178E+02
 7.689624634E+02
 7.527913208E+02
 7.358426514E+02
 7.352250977E+02
 8.308507690E+02
 1.051489746E+03
 1.273129395E+03
 1.392299561E+03
 1.399792358E+03
 1.324656250E+03
 1.232491211E+03
 1.155671021E+03
 1.078942383E+03
 1.044980469E+03
 1.112294556E+03
 1.232562744E+03
 1.315727783E+03
 1.345516113E+03
 1.349542847E+03
 1.346377319E+03
 1.342277710E+03
 1.338510010E+03
 1.335125854E+03
 1.332155396E+03
 1.329539062E+03
 1.327362915E+03
 1.325483032E+03
 1.323914917E+03
 1.322682007E+03
 1.321555420E+03
 1.320566528E+03
 1.319851685E+03
 1.319060791E+03
 1.938780029E+03
 1.919332520E+03
 1.926364014E+03
 1.951473267E+03
 1.855970825E+03
 1.737712158E+03
 1.723259399E+03
 1.760947998E+03
 1.776562988E+03
 1.766370728E+03
 1.764965576E+03
 1.781609375E+03
 1.799317993E+03
 1.819812866E+03
 1.861726685E+03
 1.744495605E+03
 1.448071045E+03
 1.317029541E+03
 1.426512695E+03
 1.504445068E+03
 1.473875854E+03
 1.486034180E+03
 1.574882568E+03
 1.658486084E+03
 1.671872437E+03
 1.644428711E+03
 1.620679565E+03
 1.484855103E+03
 1.204186646E+03
 9.554598999E+02
 8.275888672E+02
 7.805555420E+02
 7.594407959E+02
 7.435570068E+02
 7.637891846E+02
 8.786152954E+02
 1.087156128E+03
 1.288715576E+03
 1.397518188E+03
 1.400926636E+03
 1.326856445E+03
 1.238644043E+03
 1.163663208E+03
 1.083610718E+03
 1.035833862E+03
 1.092136353E+03
 1.217591187E+03
 1.310726685E+03
 1.346070679E+03
 1.351702148E+03
 1.348635010E+03
 1.344371216E+03
 1.340547607E+03
 1.337211304E+03
 1.334323730E+03
 1.331811401E+03
 1.329772827E+03
 1.328046509E+03
 1.326644287E+03
 1.325617432E+03
 1.324739380E+03
 1.323911255E+03
 1.323268555E+03
 1.322445068E+03
 2.002451294E+03
 1.923270020E+03
 1.937030151E+03
 2.013426636E+03
 1.938566895E+03
 1.776601562E+03
 1.727900879E+03
 1.774484131E+03
 1.803607666E+03
 1.792971680E+03
 1.787712524E+03
 1.809262085E+03
 1.841559082E+03
 1.872763916E+03
 1.896746826E+03
 1.738367798E+03
 1.435724609E+03
 1.352518433E+03
 1.493517090E+03
 1.553348389E+03
 1.495909546E+03
 1.509217529E+03
 1.613051636E+03
 1.698370850E+03
 1.702389160E+03
 1.653120605E+03
 1.620184204E+03
 1.525903320E+03
 1.287475464E+03
 1.026704590E+03
 8.673297729E+02
 8.012987061E+02
 7.706513062E+02
 7.662027588E+02
 8.317547607E+02
 9.891879883E+02
 1.188246948E+03
 1.344436157E+03
 1.417111084E+03
 1.406058105E+03
 1.330277588E+03
 1.243768311E+03
 1.169366455E+03
 1.089346313E+03
 1.034371704E+03
 1.074684937E+03
 1.193062744E+03
 1.295648560E+03
 1.342460083E+03
 1.353031616E+03
 1.351085449E+03
 1.346771729E+03
 1.342791260E+03
 1.339442627E+03
 1.336628662E+03
 1.334214233E+03
 1.332293457E+03
 1.330710815E+03
 1.329447876E+03
 1.328576172E+03
 1.327918945E+03
 1.327250732E+03
 1.326628174E+03
 1.325708008E+03
 2.027299683E+03
 1.949194092E+03
 1.988520752E+03
 2.079429443E+03
 2.004204346E+03
 1.802078735E+03
 1.727257935E+03
 1.784382446E+03
 1.826227905E+03
 1.813789795E+03
 1.800312988E+03
 1.815537109E+03
 1.855807007E+03
 1.897708496E+03
 1.929175293E+03
 1.742819946E+03
 1.396502319E+03
 1.326631470E+03
 1.506011230E+03
 1.578685669E+03
 1.514500000E+03
 1.528486450E+03
 1.634357666E+03
 1.715348145E+03
 1.707536011E+03
 1.630820923E+03
 1.600017334E+03
 1.573264160E+03
 1.382938232E+03
 1.102102539E+03
 9.114660645E+02
 8.248557129E+02
 7.844641113E+02
 8.201785278E+02
 9.702207031E+02
 1.169800415E+03
 1.328734619E+03
 1.413921265E+03
 1.439678223E+03
 1.413343994E+03
 1.338261475E+03
 1.251266846E+03
 1.174845581E+03
 1.094517944E+03
 1.027683838E+03
 1.048219116E+03
 1.164476562E+03
 1.281524170E+03
 1.340051147E+03
 1.355038696E+03
 1.353983887E+03
 1.349566406E+03
 1.345450195E+03
 1.342098022E+03
 1.339356934E+03
 1.337023071E+03
 1.335207275E+03
 1.333754272E+03
 1.332588257E+03
 1.331840942E+03
 1.331412720E+03
 1.330808716E+03
 1.330101929E+03
 1.328950684E+03
 1.968298584E+03
 1.913061523E+03
 1.986675659E+03
 2.092540039E+03
 2.025434204E+03
 1.824727173E+03
 1.742587036E+03
 1.811040771E+03
 1.860241089E+03
 1.841729126E+03
 1.812725098E+03
 1.800738159E+03
 1.799204102E+03
 1.798284302E+03
 1.847643677E+03
 1.771298950E+03
 1.496952637E+03
 1.430743652E+03
 1.611429443E+03
 1.659974243E+03
 1.553296509E+03
 1.527789795E+03
 1.609959351E+03
 1.686809692E+03
 1.680580322E+03
 1.599672974E+03
 1.573492920E+03
 1.606482422E+03
 1.496509888E+03
 1.226584106E+03
 9.982293701E+02
 8.757455444E+02
 8.136423340E+02
 8.722666016E+02
 1.067125000E+03
 1.269479736E+03
 1.392705688E+03
 1.443950562E+03
 1.452435303E+03
 1.424259521E+03
 1.354044922E+03
 1.264036255E+03
 1.179475464E+03
 1.096631592E+03
 1.024851196E+03
 1.025704102E+03
 1.128452393E+03
 1.255744873E+03
 1.330719482E+03
 1.354804443E+03
 1.356748535E+03
 1.352811523E+03
 1.348558228E+03
 1.345057129E+03
 1.342305908E+03
 1.339946045E+03
 1.338106323E+03
 1.336621094E+03
 1.335354858E+03
 1.334447754E+03
 1.333863525E+03
 1.333013794E+03
 1.331971313E+03
 1.330388184E+03
 1.888821533E+03
 1.858498657E+03
 1.957881592E+03
 2.086193115E+03
 2.032321045E+03
 1.837422485E+03
 1.754382446E+03
 1.832059814E+03
 1.888050415E+03
 1.865130249E+03
 1.826202637E+03
 1.793836182E+03
 1.756593750E+03
 1.716751587E+03
 1.763597046E+03
 1.774873779E+03
 1.613472046E+03
 1.579072754E+03
 1.737950073E+03
 1.764910522E+03
 1.630865356E+03
 1.559533813E+03
 1.598378418E+03
 1.655968506E+03
 1.648372681E+03
 1.574442505E+03
 1.563521484E+03
 1.649082764E+03
 1.620209839E+03
 1.380146362E+03
 1.115716064E+03
 9.475138550E+02
 8.556734619E+02
 9.081149902E+02
 1.112041626E+03
 1.312744385E+03
 1.421511963E+03
 1.460039429E+03
 1.462805664E+03
 1.436430298E+03
 1.371564453E+03
 1.280051514E+03
 1.187757812E+03
 1.100938721E+03
 1.026058838E+03
 1.011925537E+03
 1.097535400E+03
 1.226268555E+03
 1.315452515E+03
 1.350816895E+03
 1.357777100E+03
 1.355348145E+03
 1.351341797E+03
 1.347762817E+03
 1.344956665E+03
 1.342516846E+03
 1.340546509E+03
 1.338925415E+03
 1.337461304E+03
 1.336295166E+03
 1.335430054E+03
 1.334251221E+03
 1.332791870E+03
 1.330736816E+03
 1.838661499E+03
 1.772533691E+03
 1.878721924E+03
 2.060168213E+03
 2.030040283E+03
 1.834660278E+03
 1.759199097E+03
 1.848104004E+03
 1.904324463E+03
 1.877653931E+03
 1.838716553E+03
 1.797947632E+03
 1.739031250E+03
 1.682977539E+03
 1.691339478E+03
 1.773793213E+03
 1.788457764E+03
 1.773944702E+03
 1.871871460E+03
 1.917110229E+03
 1.790821655E+03
 1.649798096E+03
 1.609178101E+03
 1.622009033E+03
 1.613819336E+03
 1.574627197E+03
 1.600956543E+03
 1.742284302E+03
 1.805016968E+03
 1.598461304E+03
 1.277114502E+03
 1.049951050E+03
 9.148804321E+02
 8.972360840E+02
 1.038421387E+03
 1.242554810E+03
 1.389411865E+03
 1.456033813E+03
 1.471483887E+03
 1.452601562E+03
 1.395494019E+03
 1.305807739E+03
 1.207049194E+03
 1.114107910E+03
 1.034690674E+03
 1.005028992E+03
 1.070822876E+03
 1.197719238E+03
 1.299605713E+03
 1.346478760E+03
 1.358995239E+03
 1.358393433E+03
 1.354636963E+03
 1.350820801E+03
 1.347792236E+03
 1.344952026E+03
 1.342518921E+03
 1.340408447E+03
 1.338434448E+03
 1.336720215E+03
 1.335262085E+03
 1.333536987E+03
 1.331411621E+03
 1.328823486E+03
 1.782867554E+03
 1.721631592E+03
 1.808715698E+03
 1.987094727E+03
 1.990327393E+03
 1.826304810E+03
 1.752354492E+03
 1.832430420E+03
 1.894841797E+03
 1.874414551E+03
 1.838797729E+03
 1.811110352E+03
 1.767724487E+03
 1.713438599E+03
 1.698899414E+03
 1.789634399E+03
 1.889919678E+03
 1.886031128E+03
 1.888117310E+03
 1.936245850E+03
 1.912709106E+03
 1.819695435E+03
 1.750772827E+03
 1.716284302E+03
 1.686566040E+03
 1.668804443E+03
 1.724108154E+03
 1.874011108E+03
 1.964016724E+03
 1.803070557E+03
 1.471070190E+03
 1.184675537E+03
 1.001553467E+03
 9.226049805E+02
 9.739416504E+02
 1.124869019E+03
 1.291544922E+03
 1.409892578E+03
 1.463677612E+03
 1.464018066E+03
 1.418605835E+03
 1.335167847E+03
 1.235090210E+03
 1.137672363E+03
 1.055094604E+03
 1.018061584E+03
 1.066424561E+03
 1.177350952E+03
 1.277870239E+03
 1.332755127E+03
 1.352720459E+03
 1.356345703E+03
 1.354507446E+03
 1.351270630E+03
 1.348284302E+03
 1.345165771E+03
 1.342177856E+03
 1.339465332E+03
 1.336774414E+03
 1.334323975E+03
 1.332127930E+03
 1.329746460E+03
 1.326915649E+03
 1.323639771E+03
 1.745445801E+03
 1.683558838E+03
 1.743657715E+03
 1.900501709E+03
 1.939214111E+03
 1.816379272E+03
 1.741333862E+03
 1.805861328E+03
 1.874929443E+03
 1.864000244E+03
 1.834455933E+03
 1.828346924E+03
 1.812616455E+03
 1.770618164E+03
 1.744110840E+03
 1.831726440E+03
 1.978066162E+03
 1.940331787E+03
 1.809237549E+03
 1.862670288E+03
 1.982613525E+03
 1.988718262E+03
 1.929182739E+03
 1.860452515E+03
 1.810848633E+03
 1.812587646E+03
 1.885831909E+03
 2.019714722E+03
 2.113292480E+03
 1.997904907E+03
 1.665517578E+03
 1.323278076E+03
 1.092949219E+03
 9.464386597E+02
 8.983697510E+02
 9.887528076E+02
 1.174154907E+03
 1.349814453E+03
 1.448737061E+03
 1.473127319E+03
 1.442312256E+03
 1.368020996E+03
 1.269217163E+03
 1.168351685E+03
 1.082707275E+03
 1.038293945E+03
 1.068534790E+03
 1.161705078E+03
 1.257954712E+03
 1.318332031E+03
 1.344809204E+03
 1.352661499E+03
 1.352964233E+03
 1.350457764E+03
 1.347609253E+03
 1.344169800E+03
 1.340522095E+03
 1.337102417E+03
 1.333531616E+03
 1.330230835E+03
 1.327177856E+03
 1.324100342E+03
 1.320478638E+03
 1.316491333E+03
 1.702499023E+03
 1.690953247E+03
 1.742132812E+03
 1.846008911E+03
 1.875878784E+03
 1.795124634E+03
 1.725407837E+03
 1.772456055E+03
 1.845268311E+03
 1.850674072E+03
 1.832828003E+03
 1.834671631E+03
 1.836596436E+03
 1.850709351E+03
 1.851198853E+03
 1.834536133E+03
 1.854887085E+03
 1.777825073E+03
 1.578145264E+03
 1.535762207E+03
 1.703500488E+03
 1.889763794E+03
 1.987803711E+03
 1.995418457E+03
 1.968879395E+03
 1.967626099E+03
 2.005984497E+03
 2.080367676E+03
 2.141980225E+03
 2.061162598E+03
 1.768083984E+03
 1.407045288E+03
 1.152734131E+03
 9.908434448E+02
 8.812465820E+02
 8.764684448E+02
 1.017856995E+03
 1.232749512E+03
 1.398151367E+03
 1.467855957E+03
 1.460207520E+03
 1.398687866E+03
 1.306372437E+03
 1.207315552E+03
 1.123107544E+03
 1.075872925E+03
 1.090429810E+03
 1.160876953E+03
 1.242181030E+03
 1.299367310E+03
 1.328701904E+03
 1.340312012E+03
 1.343560181E+03
 1.342668701E+03
 1.340557739E+03
 1.337280884E+03
 1.332992432E+03
 1.328909668E+03
 1.324420654E+03
 1.320095337E+03
 1.316083618E+03
 1.312240234E+03
 1.307944946E+03
 1.303325806E+03
 1.694458496E+03
 1.708630981E+03
 1.760862061E+03
 1.828974365E+03
 1.830539429E+03
 1.768305664E+03
 1.720875122E+03
 1.758299316E+03
 1.818488525E+03
 1.832123657E+03
 1.829308228E+03
 1.832499878E+03
 1.829630859E+03
 1.870232666E+03
 1.917768799E+03
 1.854508423E+03
 1.723747681E+03
 1.553192017E+03
 1.338109985E+03
 1.252618774E+03
 1.389696045E+03
 1.629677002E+03
 1.820818848E+03
 1.903753540E+03
 1.924786133E+03
 1.936791138E+03
 1.961203125E+03
 2.013069092E+03
 2.060401855E+03
 1.996642456E+03
 1.750621826E+03
 1.419813110E+03
 1.166902466E+03
 1.004256592E+03
 8.774254761E+02
 8.182799072E+02
 8.988028564E+02
 1.101140503E+03
 1.311062988E+03
 1.436501709E+03
 1.464574097E+03
 1.421641479E+03
 1.337655151E+03
 1.241705933E+03
 1.159701294E+03
 1.112911743E+03
 1.118767822E+03
 1.169961670E+03
 1.232704712E+03
 1.280863281E+03
 1.309091919E+03
 1.322698120E+03
 1.328271362E+03
 1.329105225E+03
 1.327935181E+03
 1.325139038E+03
 1.320771362E+03
 1.316303711E+03
 1.311434448E+03
 1.306552368E+03
 1.301990723E+03
 1.297720459E+03
 1.293132446E+03
 1.288302612E+03
 1.689473022E+03
 1.741312012E+03
 1.801847900E+03
 1.829447144E+03
 1.797449463E+03
 1.751031982E+03
 1.727792969E+03
 1.753211914E+03
 1.796915771E+03
 1.821803833E+03
 1.831817993E+03
 1.817924438E+03
 1.793762451E+03
 1.868527344E+03
 1.953167358E+03
 1.782232422E+03
 1.472593018E+03
 1.263160156E+03
 1.115342529E+03
 1.012193237E+03
 1.043635132E+03
 1.218053223E+03
 1.418805054E+03
 1.561319702E+03
 1.641845825E+03
 1.676582520E+03
 1.714990723E+03
 1.788437744E+03
 1.850365479E+03
 1.812624023E+03
 1.629421021E+03
 1.358975342E+03
 1.130865967E+03
 9.838609619E+02
 8.656014404E+02
 7.787828979E+02
 7.974384155E+02
 9.732111816E+02
 1.222777222E+03
 1.403485962E+03
 1.468190674E+03
 1.444082520E+03
 1.369169922E+03
 1.278597900E+03
 1.199911987E+03
 1.151769897E+03
 1.145485962E+03
 1.176809204E+03
 1.222775269E+03
 1.262117798E+03
 1.287949585E+03
 1.302013062E+03
 1.308828857E+03
 1.310734253E+03
 1.310100830E+03
 1.307791260E+03
 1.303399292E+03
 1.298848877E+03
 1.294031006E+03
 1.289006470E+03
 1.284399414E+03
 1.280129761E+03
 1.275723511E+03
 1.271132568E+03
 1.715990723E+03
 1.730646606E+03
 1.790476440E+03
 1.832483398E+03
 1.827229248E+03
 1.791695679E+03
 1.767852051E+03
 1.777603027E+03
 1.801430786E+03
 1.819890015E+03
 1.823039917E+03
 1.786827271E+03
 1.736767212E+03
 1.788279053E+03
 1.910074097E+03
 1.788662231E+03
 1.431730469E+03
 1.153788208E+03
 1.000196838E+03
 9.134133911E+02
 9.044855957E+02
 9.738664551E+02
 1.073446655E+03
 1.167415039E+03
 1.238114624E+03
 1.278069336E+03
 1.325496582E+03
 1.400817627E+03
 1.458425537E+03
 1.441420410E+03
 1.331029663E+03
 1.161903442E+03
 1.012066833E+03
 9.097235718E+02
 8.228963013E+02
 7.543689575E+02
 7.539185791E+02
 8.869588013E+02
 1.129272217E+03
 1.346178223E+03
 1.452910767E+03
 1.456101685E+03
 1.394192505E+03
 1.309279663E+03
 1.233904663E+03
 1.186184692E+03
 1.172690308E+03
 1.188873657E+03
 1.218813721E+03
 1.246727539E+03
 1.266300659E+03
 1.277527710E+03
 1.283297363E+03
 1.285278320E+03
 1.285164673E+03
 1.283706177E+03
 1.280338135E+03
 1.276694946E+03
 1.272908936E+03
 1.269002930E+03
 1.265618164E+03
 1.262597656E+03
 1.259572876E+03
 1.256710083E+03
 1.710308105E+03
 1.751386353E+03
 1.788675415E+03
 1.817198730E+03
 1.826311890E+03
 1.808444580E+03
 1.794203247E+03
 1.799224365E+03
 1.808431641E+03
 1.815000854E+03
 1.802431885E+03
 1.742755981E+03
 1.675129517E+03
 1.714842041E+03
 1.856709717E+03
 1.767302124E+03
 1.390133057E+03
 1.072098755E+03
 9.129189453E+02
 8.414312744E+02
 8.126119385E+02
 8.046909790E+02
 8.127885742E+02
 8.455913696E+02
 8.871707153E+02
 9.199114990E+02
 9.680817871E+02
 1.034580933E+03
 1.078650146E+03
 1.075643311E+03
 1.028374756E+03
 9.534667969E+02
 8.843140259E+02
 8.308439331E+02
 7.769622192E+02
 7.318974609E+02
 7.277775879E+02
 8.312185669E+02
 1.060470215E+03
 1.298835938E+03
 1.437151123E+03
 1.463991699E+03
 1.414885742E+03
 1.336221191E+03
 1.264661621E+03
 1.217802368E+03
 1.198317261E+03
 1.201193481E+03
 1.216324097E+03
 1.232897217E+03
 1.245547974E+03
 1.253103882E+03
 1.257213135E+03
 1.258987671E+03
 1.259447632E+03
 1.259074097E+03
 1.257116943E+03
 1.254866333E+03
 1.252555542E+03
 1.250206543E+03
 1.248485596E+03
 1.247115234E+03
 1.245828857E+03
 1.245079956E+03
 1.672899658E+03
 1.855809937E+03
 1.799317871E+03
 1.754690918E+03
 1.751764893E+03
 1.759421387E+03
 1.776613403E+03
 1.795888306E+03
 1.794016602E+03
 1.768884644E+03
 1.723293579E+03
 1.656583496E+03
 1.613359985E+03
 1.689865845E+03
 1.799069946E+03
 1.651872314E+03
 1.289161499E+03
 1.004529419E+03
 8.670802002E+02
 8.072377319E+02
 7.827302246E+02
 7.733774414E+02
 7.721170044E+02
 7.806730957E+02
 7.948452148E+02
 8.055018311E+02
 8.181354370E+02
 8.378864746E+02
 8.540737915E+02
 8.550226440E+02
 8.398880615E+02
 8.174393921E+02
 7.994997559E+02
 7.791372681E+02
 7.469171753E+02
 7.190238647E+02
 7.317997437E+02
 8.481840210E+02
 1.072420654E+03
 1.297830200E+03
 1.433362305E+03
 1.466920898E+03
 1.425896118E+03
 1.353731812E+03
 1.286655396E+03
 1.240375977E+03
 1.216022461E+03
 1.208870361E+03
 1.212344238E+03
 1.219198242E+03
 1.225117920E+03
 1.228808594E+03
 1.231395996E+03
 1.233613525E+03
 1.235789307E+03
 1.237792847E+03
 1.238723999E+03
 1.239391968E+03
 1.239732178E+03
 1.239870483E+03
 1.240568726E+03
 1.241459961E+03
 1.242424927E+03
 1.244225464E+03
 1.501265259E+03
 1.854211060E+03
 1.756059082E+03
 1.660422729E+03
 1.638703491E+03
 1.668893555E+03
 1.721895996E+03
 1.754201660E+03
 1.734638306E+03
 1.683575684E+03
 1.626366089E+03
 1.577782959E+03
 1.591674438E+03
 1.703985840E+03
 1.725760498E+03
 1.458212402E+03
 1.105815918E+03
 8.989653931E+02
 8.103311768E+02
 7.730872803E+02
 7.575618286E+02
 7.502920532E+02
 7.458257446E+02
 7.431948242E+02
 7.420012207E+02
 7.422540283E+02
 7.443770142E+02
 7.472446289E+02
 7.490527954E+02
 7.487480469E+02
 7.469533081E+02
 7.476062012E+02
 7.522691040E+02
 7.473442383E+02