TITLE     = "fluent19.2.0  build-id: 10236"
VARIABLES = "Temperature"
DATASETAUXDATA Common.DensityVar="55"
DATASETAUXDATA Common.PressureVar="4"
DATASETAUXDATA Common.TemperatureVar="19"
DATASETAUXDATA Common.TurbulentDynamicViscosityVar="59"
DATASETAUXDATA Common.UVar="7"
DATASETAUXDATA Common.VectorVarsAreVelocity="TRUE"
DATASETAUXDATA Common.ViscosityVar="58"
DATASETAUXDATA Common.VVar="10"
DATASETAUXDATA Common.WVar="13"
ZONE T="Rectangular zone"
 STRANDID=0, SOLUTIONTIME=0.003
 I=64, J=32, K=32, ZONETYPE=Ordered
 DATAPACKING=POINT
 DT=(SINGLE )
 8.229187622E+02
 1.367595093E+03
 1.797428711E+03
 1.807975342E+03
 1.757723267E+03
 1.740102783E+03
 1.736986206E+03
 1.747677979E+03
 1.749696045E+03
 1.680293823E+03
 1.510051270E+03
 1.305665039E+03
 1.150744873E+03
 1.052444702E+03
 9.685000000E+02
 8.838801270E+02
 8.191265259E+02
 7.842606201E+02
 7.693807373E+02
 7.631202393E+02
 7.602504883E+02
 7.591863403E+02
 7.588865967E+02
 7.585918579E+02
 7.580988770E+02
 7.577485962E+02
 7.579534912E+02
 7.583587646E+02
 7.584051514E+02
 7.580001221E+02
 7.576291504E+02
 7.577830811E+02
 7.573102417E+02
 7.550995483E+02
 7.522084961E+02
 7.503336182E+02
 7.500177002E+02
 7.475529175E+02
 7.375880737E+02
 7.229848633E+02
 7.108139038E+02
 7.056273193E+02
 7.392112427E+02
 8.747349243E+02
 1.077298462E+03
 1.233011841E+03
 1.305832764E+03
 1.300669312E+03
 1.237270264E+03
 1.164202881E+03
 1.111640869E+03
 1.084243774E+03
 1.081397339E+03
 1.093672974E+03
 1.100334473E+03
 1.094805420E+03
 1.087914795E+03
 1.089587280E+03
 1.103239258E+03
 1.130625000E+03
 1.169666382E+03
 1.210344482E+03
 1.242493896E+03
 1.264109741E+03
 9.965383911E+02
 1.585820068E+03
 1.816413818E+03
 1.800644775E+03
 1.761247192E+03
 1.746551636E+03
 1.746609375E+03
 1.762870605E+03
 1.766272949E+03
 1.717589111E+03
 1.609790649E+03
 1.483541504E+03
 1.395048096E+03
 1.347726807E+03
 1.293166382E+03
 1.211847900E+03
 1.117892822E+03
 1.031814087E+03
 9.867180786E+02
 9.661804810E+02
 9.200377197E+02
 8.536582031E+02
 8.040040894E+02
 7.773823853E+02
 7.644985352E+02
 7.584736938E+02
 7.555045776E+02
 7.536082764E+02
 7.520752563E+02
 7.507379761E+02
 7.496564941E+02
 7.491248169E+02
 7.478983765E+02
 7.448537598E+02
 7.413770752E+02
 7.393040771E+02
 7.390820312E+02
 7.386573486E+02
 7.331853027E+02
 7.213124390E+02
 7.090767212E+02
 7.039703979E+02
 7.285772705E+02
 8.305286865E+02
 1.014138855E+03
 1.189042969E+03
 1.276398071E+03
 1.276618652E+03
 1.231504272E+03
 1.183144897E+03
 1.136426880E+03
 1.094647339E+03
 1.071095215E+03
 1.063650635E+03
 1.058491455E+03
 1.061286987E+03
 1.087531250E+03
 1.125838989E+03
 1.160165405E+03
 1.191224854E+03
 1.222978760E+03
 1.252944702E+03
 1.275719849E+03
 1.290221924E+03
 1.176262329E+03
 1.732204102E+03
 1.833664551E+03
 1.792460205E+03
 1.761881958E+03
 1.750986450E+03
 1.754496216E+03
 1.774062988E+03
 1.782675659E+03
 1.746278564E+03
 1.675559814E+03
 1.618258179E+03
 1.599931152E+03
 1.604074707E+03
 1.590768066E+03
 1.532163086E+03
 1.429164917E+03
 1.320789673E+03
 1.264727295E+03
 1.242484253E+03
 1.174117310E+03
 1.059902710E+03
 9.652545776E+02
 9.101614990E+02
 8.745797119E+02
 8.394270020E+02
 8.013399658E+02
 7.722240601E+02
 7.569105835E+02
 7.493480225E+02
 7.456733398E+02
 7.442379761E+02
 7.430468750E+02
 7.404840088E+02
 7.372554932E+02
 7.346314697E+02
 7.332916260E+02
 7.329819946E+02
 7.303747559E+02
 7.217176514E+02
 7.104149170E+02
 7.043465576E+02
 7.185517578E+02
 7.944340210E+02
 9.650922852E+02
 1.155866211E+03
 1.256092529E+03
 1.260285034E+03
 1.231126831E+03
 1.200956177E+03
 1.153714722E+03
 1.094871582E+03
 1.053164185E+03
 1.033201294E+03
 1.027380981E+03
 1.047415649E+03
 1.103197144E+03
 1.169503296E+03
 1.219381958E+03
 1.251700806E+03
 1.275190918E+03
 1.293368896E+03
 1.305447754E+03
 1.311905273E+03
 1.399104248E+03
 1.872957764E+03
 1.832611694E+03
 1.783669312E+03
 1.758185669E+03
 1.751459839E+03
 1.749516479E+03
 1.751485474E+03
 1.755568604E+03
 1.753347046E+03
 1.745385254E+03
 1.745846802E+03
 1.766781128E+03
 1.806333984E+03
 1.835375977E+03
 1.817089111E+03
 1.745422485E+03
 1.673186768E+03
 1.666146973E+03
 1.683839111E+03
 1.614469116E+03
 1.466705933E+03
 1.351738403E+03
 1.292537109E+03
 1.233053833E+03
 1.107038452E+03
 9.437684326E+02
 8.329776001E+02
 7.804567871E+02
 7.576968384E+02
 7.487521973E+02
 7.466192627E+02
 7.475583496E+02
 7.481488647E+02
 7.463481445E+02
 7.421282349E+02
 7.374013062E+02
 7.344975586E+02
 7.327274780E+02
 7.278302002E+02
 7.186418457E+02
 7.101494141E+02
 7.147570190E+02
 7.838764648E+02
 9.666649780E+02
 1.166046753E+03
 1.258755859E+03
 1.271725708E+03
 1.269940186E+03
 1.240818481E+03
 1.162999512E+03
 1.076237793E+03
 1.020384094E+03
 1.001437134E+03
 1.025481689E+03
 1.088659180E+03
 1.170154053E+03
 1.241965576E+03
 1.284365723E+03
 1.301986206E+03
 1.308964966E+03
 1.312771484E+03
 1.315078857E+03
 1.316198975E+03
 1.607141602E+03
 1.973449463E+03
 1.906721191E+03
 1.871166382E+03
 1.857521973E+03
 1.839501221E+03
 1.804775146E+03
 1.782136597E+03
 1.787071655E+03
 1.809334717E+03
 1.834446167E+03
 1.855990356E+03
 1.882658813E+03
 1.918492188E+03
 1.947263672E+03
 1.951885254E+03
 1.916671265E+03
 1.881630249E+03
 1.916660278E+03
 1.958949707E+03
 1.888948853E+03
 1.743774902E+03
 1.645570190E+03
 1.615557373E+03
 1.587746582E+03
 1.439523071E+03
 1.174620483E+03
 9.559348145E+02
 8.416068115E+02
 7.910042725E+02
 7.694927979E+02
 7.653619995E+02
 7.718573608E+02
 7.785159912E+02
 7.777791748E+02
 7.692427368E+02
 7.569233398E+02
 7.466248169E+02
 7.414161377E+02
 7.362999878E+02
 7.264027100E+02
 7.205520020E+02
 7.506952515E+02
 8.615226440E+02
 1.052352539E+03
 1.215676758E+03
 1.273871460E+03
 1.283350708E+03
 1.287922974E+03
 1.247027222E+03
 1.149945801E+03
 1.056334961E+03
 1.012166504E+03
 1.021206238E+03
 1.076057129E+03
 1.157289673E+03
 1.234844849E+03
 1.288208496E+03
 1.313948730E+03
 1.321649414E+03
 1.322257324E+03
 1.321037842E+03
 1.319454468E+03
 1.318034424E+03
 1.791146729E+03
 2.047446411E+03
 2.031492554E+03
 2.020365234E+03
 2.016015747E+03
 1.962889404E+03
 1.871156250E+03
 1.824386963E+03
 1.837659790E+03
 1.886340942E+03
 1.939680176E+03
 1.969370361E+03
 1.983592896E+03
 1.993354370E+03
 1.991857056E+03
 1.999015991E+03
 1.988739868E+03
 1.984802368E+03
 2.063395264E+03
 2.118686768E+03
 2.044015503E+03
 1.929789673E+03
 1.877676636E+03
 1.896593262E+03
 1.930624756E+03
 1.781268066E+03
 1.417434204E+03
 1.091218506E+03
 9.144089355E+02
 8.346115723E+02
 7.993328247E+02
 7.947052612E+02
 8.095340576E+02
 8.225994263E+02
 8.204820557E+02
 8.047414551E+02
 7.822923584E+02
 7.625334473E+02
 7.527725830E+02
 7.460874634E+02
 7.339827881E+02
 7.344381104E+02
 8.108049927E+02
 9.833951416E+02
 1.172043579E+03
 1.275300415E+03
 1.290845337E+03
 1.299081909E+03
 1.301227173E+03
 1.238109863E+03
 1.125340332E+03
 1.035947510E+03
 1.019314270E+03
 1.069877808E+03
 1.155292358E+03
 1.239474854E+03
 1.293751587E+03
 1.317676514E+03
 1.324925659E+03
 1.325199463E+03
 1.323397827E+03
 1.321065796E+03
 1.318617676E+03
 1.316726196E+03
 1.928201416E+03
 2.122561035E+03
 2.141922363E+03
 2.133618896E+03
 2.108883789E+03
 2.000374878E+03
 1.867277710E+03
 1.816355835E+03
 1.837501099E+03
 1.900241943E+03
 1.985631592E+03
 2.042570068E+03
 2.059650146E+03
 2.074675049E+03
 2.058176758E+03
 2.021175659E+03
 1.960976929E+03
 1.886588135E+03
 1.954716553E+03
 2.038264771E+03
 1.956893066E+03
 1.844622925E+03
 1.808657593E+03
 1.865606323E+03
 1.975894775E+03
 1.901755615E+03
 1.566413086E+03
 1.226530151E+03
 1.026036865E+03
 9.248859253E+02
 8.791439819E+02
 8.854182739E+02
 9.103819580E+02
 9.038186646E+02
 8.680103149E+02
 8.304959717E+02
 7.986187134E+02
 7.758364258E+02
 7.658661499E+02
 7.560778809E+02
 7.394105225E+02
 7.407269287E+02
 8.346372070E+02
 1.033666260E+03
 1.214763916E+03
 1.281446899E+03
 1.280637573E+03
 1.297669189E+03
 1.305014404E+03
 1.240951782E+03
 1.130226196E+03
 1.041032593E+03
 1.033655884E+03
 1.107155884E+03
 1.197664429E+03
 1.264221558E+03
 1.302646240E+03
 1.320197632E+03
 1.326024292E+03
 1.326193604E+03
 1.324674927E+03
 1.322496948E+03
 1.319689453E+03
 1.317535034E+03
 2.049009766E+03
 2.187291260E+03
 2.217448730E+03
 2.200389893E+03
 2.149354004E+03
 1.996544678E+03
 1.843976318E+03
 1.801256836E+03
 1.826167236E+03
 1.887418457E+03
 1.980995972E+03
 2.049421631E+03
 2.069548828E+03
 2.092231689E+03
 2.086193115E+03
 2.042692871E+03
 1.955582764E+03
 1.839413208E+03
 1.888239380E+03
 1.987719971E+03
 1.923690552E+03
 1.816688599E+03
 1.776351807E+03
 1.833029419E+03
 1.957960205E+03
 1.916637085E+03
 1.633112549E+03
 1.340007568E+03
 1.160825195E+03
 1.062381592E+03
 1.014271484E+03
 1.023784485E+03
 1.045978882E+03
 1.007052979E+03
 9.231062012E+02
 8.545357666E+02
 8.119042969E+02
 7.866290894E+02
 7.749553223E+02
 7.622442627E+02
 7.455270386E+02
 7.554641113E+02
 8.625604858E+02
 1.069258911E+03
 1.242363159E+03
 1.285537964E+03
 1.271625000E+03
 1.295989258E+03
 1.311025269E+03
 1.247448242E+03
 1.135399658E+03
 1.043081421E+03
 1.037085938E+03
 1.123978882E+03
 1.224346680E+03
 1.284829834E+03
 1.312261475E+03
 1.323798096E+03
 1.327588867E+03
 1.327144897E+03
 1.325543701E+03
 1.323598755E+03
 1.320701660E+03
 1.317906982E+03
 2.109799805E+03
 2.229359375E+03
 2.217168701E+03
 2.168244141E+03
 2.067224609E+03
 1.907456299E+03
 1.810919678E+03
 1.797740356E+03
 1.814064819E+03
 1.844955200E+03
 1.899766113E+03
 1.948453247E+03
 1.969638794E+03
 2.008668701E+03
 2.051126953E+03
 2.050850342E+03
 1.966738159E+03
 1.841351318E+03
 1.866701172E+03
 1.980915039E+03
 1.977648926E+03
 1.873896240E+03
 1.779955688E+03
 1.771859131E+03
 1.832405640E+03
 1.809718994E+03
 1.640204590E+03
 1.452600098E+03
 1.331087280E+03
 1.259153687E+03
 1.223046387E+03
 1.229313721E+03
 1.208048340E+03
 1.091999756E+03
 9.478951416E+02
 8.558975830E+02
 8.120982056E+02
 7.890159302E+02
 7.744719849E+02
 7.603663940E+02
 7.540091553E+02
 7.889203491E+02
 9.027774048E+02
 1.089223145E+03
 1.240122803E+03
 1.271615234E+03
 1.264740479E+03
 1.300078491E+03
 1.319798584E+03
 1.257201050E+03
 1.139989990E+03
 1.038600952E+03
 1.029203369E+03
 1.119016235E+03
 1.224333008E+03
 1.288236328E+03
 1.316036987E+03
 1.326257568E+03
 1.328856201E+03
 1.327696167E+03
 1.325951050E+03
 1.324586548E+03
 1.321382202E+03
 1.317074951E+03
 2.121220459E+03
 2.184493896E+03
 2.145597656E+03
 2.106227295E+03
 2.022048340E+03
 1.900520874E+03
 1.846724121E+03
 1.829411865E+03
 1.825681763E+03
 1.841394653E+03
 1.865377075E+03
 1.882118652E+03
 1.890348999E+03
 1.919032227E+03
 1.973792358E+03
 2.022881470E+03
 1.991816895E+03
 1.919879272E+03
 1.921571411E+03
 1.945822632E+03
 1.912302612E+03
 1.813098511E+03
 1.709787109E+03
 1.674949341E+03
 1.692622437E+03
 1.673229126E+03
 1.591767700E+03
 1.512648926E+03
 1.454930054E+03
 1.407000977E+03
 1.377196777E+03
 1.355393066E+03
 1.269252319E+03
 1.096106934E+03
 9.333710938E+02
 8.463861694E+02
 8.103968506E+02
 7.941671753E+02
 7.831725464E+02
 7.722897949E+02
 7.875631714E+02
 8.657833252E+02
 1.010471008E+03
 1.179651855E+03
 1.281998169E+03
 1.281825928E+03
 1.271350952E+03
 1.310468140E+03
 1.332014404E+03
 1.271325928E+03
 1.152761353E+03
 1.043353027E+03
 1.023833618E+03
 1.110875488E+03
 1.221704590E+03
 1.290414551E+03
 1.319026245E+03
 1.328502808E+03
 1.330746460E+03
 1.329578857E+03
 1.327681152E+03
 1.327243896E+03
 1.324814453E+03
 1.315965088E+03
 2.098790283E+03
 2.106556641E+03
 2.042197632E+03
 2.027113647E+03
 1.980988281E+03
 1.921856445E+03
 1.908084717E+03
 1.872562500E+03
 1.851603271E+03
 1.857679565E+03
 1.852877075E+03
 1.839871338E+03
 1.834770142E+03
 1.843080078E+03
 1.897836426E+03
 1.986728882E+03
 2.011478516E+03
 2.011111938E+03
 1.979946777E+03
 1.884595093E+03
 1.804559814E+03
 1.713609619E+03
 1.622698853E+03
 1.579944214E+03
 1.569756226E+03
 1.567314575E+03
 1.570114746E+03
 1.582965942E+03
 1.572069336E+03
 1.532233521E+03
 1.494939575E+03
 1.429068604E+03
 1.270580078E+03
 1.056403320E+03
 8.998210449E+02
 8.323277588E+02
 8.087047119E+02
 8.031413574E+02
 8.052075195E+02
 8.088060303E+02
 8.522458496E+02
 9.710015259E+02
 1.137201050E+03
 1.281322876E+03
 1.331109253E+03
 1.298762939E+03
 1.283336792E+03
 1.322677734E+03
 1.344942017E+03
 1.287374878E+03
 1.168311157E+03
 1.051184082E+03
 1.018150024E+03
 1.096612793E+03
 1.211504761E+03
 1.287614624E+03
 1.319534546E+03
 1.329649048E+03
 1.332254883E+03
 1.331513306E+03
 1.329664429E+03
 1.330246704E+03
 1.328741943E+03
 1.314515259E+03
 2.027509277E+03
 2.025126099E+03
 1.902426636E+03
 1.838882935E+03
 1.827199829E+03
 1.854504395E+03
 1.933358276E+03
 1.974784180E+03
 1.983400635E+03
 1.985987427E+03
 1.949362915E+03
 1.890348267E+03
 1.855503784E+03
 1.848245239E+03
 1.864512085E+03
 1.897782593E+03
 1.917801880E+03
 1.948995850E+03
 1.946044312E+03
 1.814436035E+03
 1.676650146E+03
 1.624557983E+03
 1.618905273E+03
 1.634363647E+03
 1.655317871E+03
 1.671048340E+03
 1.696612549E+03
 1.727943970E+03
 1.691623779E+03
 1.581541992E+03
 1.469300293E+03
 1.343213867E+03
 1.161871216E+03
 9.759945679E+02
 8.629603882E+02
 8.256022339E+02
 8.140004883E+02
 8.411728516E+02
 9.111749268E+02
 9.684063721E+02
 1.027203125E+03
 1.123048950E+03
 1.242759766E+03
 1.342696533E+03
 1.363772827E+03
 1.320603394E+03
 1.298067993E+03
 1.329601440E+03
 1.356846802E+03
 1.308833862E+03
 1.192597778E+03
 1.066667847E+03
 1.002859558E+03
 1.056460693E+03
 1.178383057E+03
 1.272559082E+03
 1.315299927E+03
 1.329379883E+03
 1.333580933E+03
 1.333829834E+03
 1.332104858E+03
 1.333643188E+03
 1.332231445E+03
 1.306977661E+03
 1.944696655E+03
 1.923378662E+03
 1.769463989E+03
 1.665243774E+03
 1.654973389E+03
 1.736188354E+03
 1.884746582E+03
 1.996204590E+03
 2.055059082E+03
 2.077052734E+03
 2.035086304E+03
 1.946619507E+03
 1.880703857E+03
 1.856468384E+03
 1.854033447E+03
 1.859275391E+03
 1.866322266E+03
 1.907663574E+03
 1.920087280E+03
 1.806239502E+03
 1.685868286E+03
 1.671359253E+03
 1.719279053E+03
 1.761895508E+03
 1.782701782E+03
 1.790977295E+03
 1.812110596E+03
 1.846870483E+03
 1.817311890E+03
 1.685587646E+03
 1.511479614E+03
 1.335408203E+03
 1.152623535E+03
 9.875274658E+02
 8.873468628E+02
 8.555339355E+02
 8.480697632E+02
 8.933971558E+02
 1.010387146E+03
 1.117816650E+03
 1.193438843E+03
 1.265382812E+03
 1.339709717E+03
 1.398241211E+03
 1.397823486E+03
 1.348974854E+03
 1.317968628E+03
 1.334695923E+03
 1.359535522E+03
 1.323030518E+03
 1.213238525E+03
 1.083158325E+03
 1.001168518E+03
 1.024747803E+03
 1.133130249E+03
 1.241401978E+03
 1.302853394E+03
 1.326181152E+03
 1.333652344E+03
 1.335393799E+03
 1.334521118E+03
 1.336524536E+03
 1.335584961E+03
 1.307828247E+03
 1.844551880E+03
 1.804547485E+03
 1.628870361E+03
 1.485476685E+03
 1.463976562E+03
 1.568093994E+03
 1.763157837E+03
 1.959453735E+03
 2.092002930E+03
 2.144657471E+03
 2.087605469E+03
 1.969390869E+03
 1.888661987E+03
 1.858484863E+03
 1.852049805E+03
 1.854429810E+03
 1.859935181E+03
 1.880080688E+03
 1.908488159E+03
 1.876064087E+03
 1.826805908E+03
 1.862257080E+03
 1.935736938E+03
 1.966407227E+03
 1.955828491E+03
 1.933269287E+03
 1.925252075E+03
 1.946906006E+03
 1.945149902E+03
 1.812050171E+03
 1.577514771E+03
 1.385690796E+03
 1.246693359E+03
 1.097262329E+03
 9.750537109E+02
 9.261920776E+02
 9.142678833E+02
 9.775885620E+02
 1.135909912E+03
 1.277859375E+03
 1.345558350E+03
 1.373289917E+03
 1.400280762E+03
 1.429723999E+03
 1.427069214E+03
 1.380621582E+03
 1.333303711E+03
 1.329405151E+03
 1.354343506E+03
 1.333447266E+03
 1.232675171E+03
 1.100249756E+03
 9.977761841E+02
 9.849926758E+02
 1.080484009E+03
 1.208588135E+03
 1.290746948E+03
 1.323563599E+03
 1.334156128E+03
 1.337395996E+03
 1.337485474E+03
 1.339429321E+03
 1.339111450E+03
 1.312254517E+03
 1.624505493E+03
 1.667742432E+03
 1.604332520E+03
 1.489094482E+03
 1.454489746E+03
 1.556506958E+03
 1.755816406E+03
 1.941209229E+03
 2.047458496E+03
 2.090587402E+03
 2.042670166E+03
 1.952903320E+03
 1.916387939E+03
 1.924115601E+03
 1.934227417E+03
 1.943629272E+03
 1.958145508E+03
 1.972880127E+03
 1.982455688E+03
 1.961354492E+03
 1.936992432E+03
 1.975246094E+03
 2.039855469E+03
 2.035447266E+03
 1.971055420E+03
 1.911310303E+03
 1.875672119E+03
 1.876781982E+03
 1.893030029E+03
 1.820535767E+03
 1.645658813E+03
 1.498650146E+03
 1.416915039E+03
 1.325842651E+03
 1.211987427E+03
 1.137908569E+03
 1.112709229E+03
 1.130830688E+03
 1.203662354E+03
 1.293028442E+03
 1.357570068E+03
 1.392761597E+03
 1.414602661E+03
 1.436224365E+03
 1.443463501E+03
 1.413407715E+03
 1.357828369E+03
 1.324005249E+03
 1.335148804E+03
 1.333847168E+03
 1.253043335E+03
 1.121662476E+03
 1.008330811E+03
 9.641578369E+02
 1.030312134E+03
 1.163475220E+03
 1.267934082E+03
 1.316068848E+03
 1.332822632E+03
 1.338295044E+03
 1.339797729E+03
 1.341992554E+03
 1.341105835E+03
 1.319467773E+03
 1.439795166E+03
 1.571819824E+03
 1.598486572E+03
 1.525159546E+03
 1.496181152E+03
 1.606576050E+03
 1.799998657E+03
 1.954834351E+03
 2.024089844E+03
 2.048523682E+03
 2.003557495E+03
 1.941640625E+03
 1.949213257E+03
 1.990998657E+03
 2.016843018E+03
 2.033013428E+03
 2.054837891E+03
 2.063878906E+03
 2.054011475E+03
 2.034251221E+03
 2.027055176E+03
 2.064014893E+03
 2.110424561E+03
 2.077540039E+03
 1.980929565E+03
 1.901858398E+03
 1.853345337E+03
 1.840019897E+03
 1.860413818E+03
 1.832537964E+03
 1.722672241E+03
 1.622200195E+03
 1.576798706E+03
 1.531593384E+03
 1.444097046E+03
 1.365921997E+03
 1.337015625E+03
 1.328204956E+03
 1.321164795E+03
 1.327398193E+03
 1.354565674E+03
 1.387576416E+03
 1.412898071E+03
 1.435195679E+03
 1.451185791E+03
 1.437741333E+03
 1.385395264E+03
 1.331171387E+03
 1.322290649E+03
 1.329946167E+03
 1.271142456E+03
 1.146244629E+03
 1.024587158E+03
 9.570002441E+02
 9.926353760E+02
 1.116455322E+03
 1.236232056E+03
 1.302323120E+03
 1.328535522E+03
 1.337715576E+03
 1.341091797E+03
 1.344011230E+03
 1.340461792E+03
 1.317849121E+03
 1.368029419E+03
 1.559172852E+03
 1.662959106E+03
 1.603914429E+03
 1.611051270E+03
 1.773713989E+03
 1.931162476E+03
 2.014011597E+03
 2.038562988E+03
 2.044020874E+03
 2.016025879E+03
 1.990768555E+03
 2.015705444E+03
 2.056988770E+03
 2.077822266E+03
 2.092526123E+03
 2.122582520E+03
 2.125133789E+03
 2.087855957E+03
 2.070472656E+03
 2.080890869E+03
 2.103966309E+03
 2.122115967E+03
 2.086853271E+03
 2.013982910E+03
 1.964746338E+03
 1.940616943E+03
 1.926299316E+03
 1.920733276E+03
 1.902072266E+03
 1.841206299E+03
 1.752480591E+03
 1.693146729E+03
 1.679704712E+03
 1.653932983E+03
 1.620076172E+03
 1.619856812E+03
 1.606250854E+03
 1.514463257E+03
 1.392401245E+03
 1.338185791E+03
 1.356986084E+03
 1.397286987E+03
 1.429228882E+03
 1.451694824E+03
 1.457763550E+03
 1.425640503E+03
 1.358454102E+03
 1.315464111E+03
 1.319464478E+03
 1.283545410E+03
 1.170797852E+03
 1.047956299E+03
 9.642736206E+02
 9.634663086E+02
 1.065781982E+03
 1.198764526E+03
 1.285112915E+03
 1.322771729E+03
 1.336156860E+03
 1.341853882E+03
 1.345234253E+03
 1.329251709E+03
 1.293785522E+03
 1.307370239E+03
 1.430934814E+03
 1.608313354E+03
 1.689524170E+03
 1.769147217E+03
 1.899131226E+03
 1.960457031E+03
 1.978522217E+03
 1.997807739E+03
 2.009558960E+03
 1.991539917E+03
 1.979341187E+03
 1.998210083E+03
 2.019151489E+03
 2.025231812E+03
 2.032356567E+03
 2.057367432E+03
 2.056446533E+03
 2.015739258E+03
 2.011968018E+03
 2.061594727E+03
 2.115754883E+03
 2.140003906E+03
 2.121663086E+03
 2.087627686E+03
 2.067488525E+03
 2.053521973E+03
 2.044508301E+03
 2.042637085E+03
 2.012601685E+03
 1.916417114E+03
 1.783885376E+03
 1.692914185E+03
 1.665220215E+03
 1.655954224E+03
 1.674942871E+03
 1.740883789E+03
 1.784439941E+03
 1.707745972E+03
 1.522873779E+03
 1.361433960E+03
 1.306028564E+03
 1.334174438E+03
 1.388734497E+03
 1.434862183E+03
 1.460134033E+03
 1.451543335E+03
 1.398967896E+03
 1.339744873E+03
 1.319404663E+03
 1.286228638E+03
 1.188461792E+03
 1.069786621E+03
 9.791757812E+02
 9.546378784E+02
 1.028232544E+03
 1.155776367E+03
 1.256446045E+03
 1.308027344E+03
 1.328707886E+03
 1.338268311E+03
 1.342955688E+03
 1.321497437E+03
 1.279338745E+03
 1.287576416E+03
 1.289491089E+03
 1.527128662E+03
 1.780908203E+03
 1.937772949E+03
 1.995052734E+03
 1.931183350E+03
 1.896916260E+03
 1.929938354E+03
 1.957134277E+03
 1.953365112E+03
 1.943600342E+03
 1.942061890E+03
 1.937247803E+03
 1.929791382E+03
 1.929542847E+03
 1.943689209E+03
 1.938362427E+03
 1.899410522E+03
 1.914389893E+03
 2.011516113E+03
 2.109301025E+03
 2.152532959E+03
 2.164396240E+03
 2.174916504E+03
 2.175848389E+03
 2.159943115E+03
 2.153454590E+03
 2.162169434E+03
 2.112461914E+03
 1.947216675E+03
 1.747184082E+03
 1.622944946E+03
 1.568075928E+03
 1.560847656E+03
 1.636479370E+03
 1.780978882E+03
 1.900635376E+03
 1.866839600E+03
 1.641373413E+03
 1.377830322E+03
 1.242900757E+03
 1.255813843E+03
 1.336858887E+03
 1.411340820E+03
 1.458223389E+03
 1.476571411E+03
 1.445359375E+03
 1.371647705E+03
 1.320301636E+03
 1.283824219E+03
 1.200688965E+03
 1.089477783E+03
 9.943574829E+02
 9.467647705E+02
 9.934728394E+02
 1.115675415E+03
 1.227935181E+03
 1.291727295E+03
 1.319267578E+03
 1.333035034E+03
 1.338573242E+03
 1.312167358E+03
 1.267650269E+03
 1.464926270E+03
 1.329078247E+03
 1.469441650E+03
 1.844592896E+03
 2.047824829E+03
 2.003089478E+03
 1.871869385E+03
 1.838052979E+03
 1.861756226E+03
 1.876617065E+03
 1.870261108E+03
 1.860650635E+03
 1.864092041E+03
 1.868258667E+03
 1.866344482E+03
 1.864389404E+03
 1.866091309E+03
 1.861728882E+03
 1.842552612E+03
 1.845918213E+03
 1.916233643E+03
 2.034337524E+03
 2.122699707E+03
 2.151631104E+03
 2.139466309E+03
 2.093036133E+03
 2.039728271E+03
 2.001335571E+03
 1.954141479E+03
 1.838175171E+03
 1.632789429E+03
 1.434458130E+03
 1.337225952E+03
 1.299840942E+03
 1.295275879E+03
 1.384586792E+03
 1.558823120E+03
 1.725299072E+03
 1.783735352E+03
 1.639083984E+03
 1.365614014E+03
 1.165561401E+03
 1.135209717E+03
 1.230408569E+03
 1.349907227E+03
 1.432757202E+03
 1.473516602E+03
 1.470841919E+03
 1.414702637E+03
 1.341698120E+03
 1.278745239E+03
 1.194981567E+03
 1.092458496E+03
 1.002243408E+03
 9.536089478E+02
 9.876234131E+02
 1.093856689E+03
 1.201321289E+03
 1.268407104E+03
 1.301291016E+03
 1.318917114E+03
 1.326343994E+03
 1.311554443E+03
 1.285156738E+03
 1.716331055E+03
 1.502609863E+03
 1.572508545E+03
 1.912139771E+03
 2.105683594E+03
 2.030359375E+03
 1.851624023E+03
 1.790263672E+03
 1.804599731E+03
 1.816689575E+03
 1.813445801E+03
 1.811223511E+03
 1.823665527E+03
 1.834829590E+03
 1.835363037E+03
 1.830254883E+03
 1.823929199E+03
 1.815333374E+03
 1.801821533E+03
 1.813652466E+03
 1.886576294E+03
 2.008679565E+03
 2.113785645E+03
 2.154690430E+03
 2.125666748E+03
 2.029294312E+03
 1.908343140E+03
 1.801430420E+03
 1.686517944E+03
 1.521080811E+03
 1.313991821E+03
 1.149211914E+03
 1.083837402E+03
 1.064814453E+03
 1.067921875E+03
 1.153553711E+03
 1.315148682E+03
 1.477564575E+03
 1.576434814E+03
 1.521872192E+03
 1.321608276E+03
 1.122753662E+03
 1.046443237E+03
 1.113504761E+03
 1.249849365E+03
 1.370281982E+03
 1.443320923E+03
 1.469799438E+03
 1.439784058E+03
 1.368784668E+03
 1.287383301E+03
 1.195294556E+03
 1.097885986E+03
 1.013195557E+03
 9.674240723E+02
 9.957136841E+02
 1.086378662E+03
 1.181075317E+03
 1.244676392E+03
 1.279345947E+03
 1.299554199E+03
 1.308815552E+03
 1.301372803E+03
 1.288537476E+03
 2.032089111E+03
 1.819091064E+03
 1.793745361E+03
 1.969495972E+03
 2.103798096E+03
 2.040037354E+03
 1.844759644E+03
 1.749167236E+03
 1.757546997E+03
 1.779787720E+03
 1.786826782E+03
 1.797478638E+03
 1.819297974E+03
 1.833143555E+03
 1.831886108E+03
 1.821391113E+03
 1.808415039E+03
 1.795728638E+03
 1.786061035E+03
 1.832475586E+03
 1.922615723E+03
 2.023512451E+03
 2.127440674E+03
 2.168312012E+03
 2.104859619E+03
 1.936180542E+03
 1.718457764E+03
 1.511531738E+03
 1.321890625E+03
 1.149282104E+03
 1.008454956E+03
 9.151219482E+02
 8.758262939E+02
 8.667908325E+02
 8.759911499E+02
 9.259514771E+02
 1.018832458E+03
 1.134566895E+03
 1.256813354E+03
 1.320559937E+03
 1.248848389E+03
 1.080959717E+03
 9.587593994E+02
 9.922313232E+02
 1.145801270E+03
 1.306261230E+03
 1.412158691E+03
 1.464449341E+03
 1.463283325E+03
 1.403023560E+03
 1.307328857E+03
 1.204232544E+03
 1.107254150E+03
 1.030253174E+03
 9.932598267E+02
 1.016332764E+03
 1.087598022E+03
 1.165119019E+03
 1.220952515E+03
 1.254770508E+03
 1.275329590E+03
 1.286508423E+03
 1.288525024E+03
 1.285794800E+03
 2.016253296E+03
 1.958550415E+03
 1.932919434E+03
 1.974590820E+03
 2.007159058E+03
 1.955845215E+03
 1.812353516E+03
 1.728135986E+03
 1.731623901E+03
 1.761171997E+03
 1.782358276E+03
 1.801517090E+03
 1.821602173E+03
 1.831114868E+03
 1.829273560E+03
 1.815650635E+03
 1.794947510E+03
 1.779617554E+03
 1.780752930E+03
 1.877483765E+03
 2.018426636E+03
 2.098577881E+03
 2.153743408E+03
 2.170399170E+03
 2.090326416E+03
 1.883295654E+03
 1.599767578E+03
 1.335842896E+03
 1.135638306E+03
 9.911221924E+02
 8.918090820E+02
 8.313991699E+02
 8.032257690E+02
 7.934749756E+02
 7.954533691E+02
 8.173311157E+02
 8.607265625E+02
 9.187183838E+02
 9.984094238E+02
 1.081184692E+03
 1.091992676E+03
 9.979075928E+02
 8.907800293E+02
 8.961864624E+02
 1.034945679E+03
 1.218477905E+03
 1.360499512E+03
 1.442031982E+03
 1.464768188E+03
 1.421971924E+03
 1.331612061E+03
 1.229692627E+03
 1.137700317E+03
 1.068619751E+03
 1.036571533E+03
 1.052221680E+03
 1.103384033E+03
 1.159664429E+03
 1.201879395E+03
 1.229275513E+03
 1.247401489E+03
 1.258795776E+03
 1.263447266E+03
 1.263603760E+03
 1.920720581E+03
 2.025947510E+03
 2.000445312E+03
 1.963325195E+03
 1.922720825E+03
 1.872122070E+03
 1.779424683E+03
 1.719815063E+03
 1.721738892E+03
 1.753405273E+03
 1.783369019E+03
 1.808056030E+03
 1.824836304E+03
 1.829314453E+03
 1.826745117E+03
 1.813016113E+03
 1.793747314E+03
 1.790289185E+03
 1.810853271E+03
 1.939633423E+03
 2.104334961E+03
 2.158570801E+03
 2.162117432E+03
 2.134086670E+03
 2.015402100E+03
 1.772214966E+03
 1.455129395E+03
 1.175673706E+03
 9.912297363E+02
 8.830029297E+02
 8.196593628E+02
 7.827327881E+02
 7.620725098E+02
 7.514178467E+02
 7.468554688E+02
 7.475034790E+02
 7.548424072E+02
 7.674345703E+02
 8.025718994E+02
 8.770638428E+02
 9.346321411E+02
 9.024444580E+02
 8.249736328E+02
 8.197799683E+02
 9.466845093E+02
 1.147350098E+03
 1.318915039E+03
 1.423711792E+03
 1.464050049E+03
 1.435155762E+03
 1.352737671E+03
 1.256286865E+03
 1.171572266E+03
 1.111282837E+03
 1.083807251E+03
 1.091143066E+03
 1.121877197E+03
 1.156933594E+03
 1.185222778E+03
 1.205588989E+03
 1.220904541E+03
 1.232415649E+03
 1.239008911E+03
 1.240778809E+03
 1.768024780E+03
 1.971374146E+03
 1.906249023E+03
 1.911815063E+03
 1.874169922E+03
 1.831859863E+03
 1.782632690E+03
 1.744674316E+03
 1.744471558E+03
 1.768154175E+03
 1.794891113E+03
 1.816196289E+03
 1.828533203E+03
 1.829503662E+03
 1.826416260E+03
 1.822521729E+03
 1.836923950E+03
 1.892789795E+03
 1.935214600E+03
 2.016961914E+03
 2.136420654E+03
 2.163713867E+03
 2.079684570E+03
 1.917558105E+03
 1.722187500E+03
 1.496733032E+03
 1.254054321E+03
 1.050686157E+03
 9.177600708E+02
 8.390201416E+02
 7.927186890E+02
 7.664175415E+02
 7.520797119E+02
 7.446107788E+02
 7.414008179E+02
 7.424080811E+02
 7.486034546E+02
 7.560826416E+02
 7.683902588E+02
 7.974089355E+02
 8.245010376E+02
 8.115805664E+02
 7.732293091E+02
 7.895484619E+02
 9.246983032E+02
 1.132901978E+03
 1.313365845E+03
 1.423816772E+03
 1.464762207E+03
 1.437859863E+03
 1.363691528E+03
 1.279596680E+03
 1.207232910E+03
 1.155021606E+03
 1.126447510E+03
 1.121290039E+03
 1.133245483E+03
 1.152261230E+03
 1.171254639E+03
 1.187827515E+03
 1.202642822E+03
 1.215463379E+03
 1.224140747E+03
 1.228456787E+03
 1.564773315E+03
 1.840151123E+03
 1.820131470E+03
 1.905864746E+03
 1.888762817E+03
 1.834011108E+03
 1.797444824E+03
 1.776227661E+03
 1.777223022E+03
 1.792247070E+03
 1.810233887E+03
 1.823914795E+03
 1.825817871E+03
 1.814875366E+03
 1.804808350E+03
 1.813614868E+03
 1.867451782E+03
 1.967829712E+03
 2.017769897E+03
 2.051791016E+03
 2.114140381E+03
 2.097393555E+03
 1.934065796E+03
 1.659997925E+03
 1.391066895E+03
 1.174736450E+03
 1.009172607E+03
 8.964227905E+02
 8.282735596E+02
 7.879068604E+02
 7.641181030E+02
 7.508703613E+02
 7.436516113E+02
 7.396719360E+02